 Entering Gaussian System, Link 0=g03
 Initial command:
 /sw/gaussian/g03/l1.exe /scratch/Gau-29160.inp -scrdir=/scratch/
 Entering Link 1 = /sw/gaussian/g03/l1.exe PID=     29161.
  
 Copyright (c) 1988,1990,1992,1993,1995,1998,2003,2004,2007, Gaussian, Inc.
                  All Rights Reserved.
  
 This is the Gaussian(R) 03 program.  It is based on the
 the Gaussian(R) 98 system (copyright 1998, Gaussian, Inc.),
 the Gaussian(R) 94 system (copyright 1995, Gaussian, Inc.),
 the Gaussian 92(TM) system (copyright 1992, Gaussian, Inc.),
 the Gaussian 90(TM) system (copyright 1990, Gaussian, Inc.),
 the Gaussian 88(TM) system (copyright 1988, Gaussian, Inc.),
 the Gaussian 86(TM) system (copyright 1986, Carnegie Mellon
 University), and the Gaussian 82(TM) system (copyright 1983,
 Carnegie Mellon University). Gaussian is a federally registered
 trademark of Gaussian, Inc.
  
 This software contains proprietary and confidential information,
 including trade secrets, belonging to Gaussian, Inc.
  
 This software is provided under written license and may be
 used, copied, transmitted, or stored only in accord with that
 written license.
  
 The following legend is applicable only to US Government
 contracts under FAR:
  
                    RESTRICTED RIGHTS LEGEND
  
 Use, reproduction and disclosure by the US Government is
 subject to restrictions as set forth in subparagraphs (a)
 and (c) of the Commercial Computer Software - Restricted
 Rights clause in FAR 52.227-19.
  
 Gaussian, Inc.
 340 Quinnipiac St., Bldg. 40, Wallingford CT 06492
  
  
 ---------------------------------------------------------------
 Warning -- This program may not be used in any manner that
 competes with the business of Gaussian, Inc. or will provide
 assistance to any competitor of Gaussian, Inc.  The licensee
 of this program is prohibited from giving any competitor of
 Gaussian, Inc. access to this program.  By using this program,
 the user acknowledges that Gaussian, Inc. is engaged in the
 business of creating and licensing software in the field of
 computational chemistry and represents and warrants to the
 licensee that it is not a competitor of Gaussian, Inc. and that
 it will not use this program in any manner prohibited above.
 ---------------------------------------------------------------
  

 Cite this work as:
 Gaussian 03, Revision E.01,
 M. J. Frisch, G. W. Trucks, H. B. Schlegel, G. E. Scuseria, 
 M. A. Robb, J. R. Cheeseman, J. A. Montgomery, Jr., T. Vreven, 
 K. N. Kudin, J. C. Burant, J. M. Millam, S. S. Iyengar, J. Tomasi, 
 V. Barone, B. Mennucci, M. Cossi, G. Scalmani, N. Rega, 
 G. A. Petersson, H. Nakatsuji, M. Hada, M. Ehara, K. Toyota, 
 R. Fukuda, J. Hasegawa, M. Ishida, T. Nakajima, Y. Honda, O. Kitao, 
 H. Nakai, M. Klene, X. Li, J. E. Knox, H. P. Hratchian, J. B. Cross, 
 V. Bakken, C. Adamo, J. Jaramillo, R. Gomperts, R. E. Stratmann, 
 O. Yazyev, A. J. Austin, R. Cammi, C. Pomelli, J. W. Ochterski, 
 P. Y. Ayala, K. Morokuma, G. A. Voth, P. Salvador, J. J. Dannenberg, 
 V. G. Zakrzewski, S. Dapprich, A. D. Daniels, M. C. Strain, 
 O. Farkas, D. K. Malick, A. D. Rabuck, K. Raghavachari, 
 J. B. Foresman, J. V. Ortiz, Q. Cui, A. G. Baboul, S. Clifford, 
 J. Cioslowski, B. B. Stefanov, G. Liu, A. Liashenko, P. Piskorz, 
 I. Komaromi, R. L. Martin, D. J. Fox, T. Keith, M. A. Al-Laham, 
 C. Y. Peng, A. Nanayakkara, M. Challacombe, P. M. W. Gill, 
 B. Johnson, W. Chen, M. W. Wong, C. Gonzalez, and J. A. Pople, 
 Gaussian, Inc., Wallingford CT, 2004.
 
 ******************************************
 Gaussian 03:  AM64L-G03RevE.01 11-Sep-2007
                15-Jul-2010 
 ******************************************
 %chk=oh-h2o-4-h2o-4-b3lyp.chk
 %NProc=8
 Will use up to    8 processors via shared memory.
 %Mem=8000MB
 --------------------------------------------------------------
 # b3lyp/aug-cc-pvtz opt=(maxcycle=1000) geom=connectivity freq
 --------------------------------------------------------------
 1/6=1000,14=-1,18=20,26=3,38=1,57=2/1,3;
 2/9=110,17=6,18=5,40=1/2;
 3/5=16,6=1,7=10,11=2,16=1,25=1,30=1,74=-5/1,2,3;
 4//1;
 5/5=2,38=5/2;
 6/7=2,8=2,9=2,10=2,28=1/1;
 7//1,2,3,16;
 1/6=1000,14=-1,18=20/3(3);
 2/9=110/2;
 6/7=2,8=2,9=2,10=2,19=2,28=1/1;
 99//99;
 2/9=110/2;
 3/5=16,6=1,7=10,11=2,16=1,25=1,30=1,74=-5/1,2,3;
 4/5=5,16=3/1;
 5/5=2,38=5/2;
 7//1,2,3,16;
 1/6=1000,14=-1,18=20/3(-5);
 2/9=110/2;
 6/7=2,8=2,9=2,10=2,19=2,28=1/1;
 99/9=1/99;
 -------------------
 Title Card Required
 -------------------
 Symbolic Z-matrix:
 Charge = -1 Multiplicity = 1
 H
 O                    1    B1
 H                    2    B2       1    A1
 H                    2    B3       1    A2       3    D1       0
 O                    2    B4       1    A3       4    D2       0
 H                    2    B5       1    A4       5    D3       0
 H                    2    B6       1    A5       5    D4       0
 O                    2    B7       1    A6       5    D5       0
 H                    8    B8       2    A7       1    D6       0
 H                    2    B9       1    A8       8    D7       0
 O                    2    B10      1    A9       8    D8       0
 H                    2    B11      1    A10      11   D9       0
 H                    5    B12      2    A11      1    D10      0
 O                    2    B13      1    A12      11   D11      0
 H                    11   B14      2    A13      1    D12      0
 H                    5    B15      2    A14      1    D13      0
 O                    5    B16      2    A15      1    D14      0
 H                    8    B17      2    A16      1    D15      0
 H                    14   B18      2    A17      1    D16      0
 O                    14   B19      2    A18      1    D17      0
 H                    11   B20      2    A19      1    D18      0
 H                    8    B21      2    A20      1    D19      0
 O                    8    B22      2    A21      1    D20      0
 H                    5    B23      2    A22      1    D21      0
 H                    5    B24      2    A23      1    D22      0
 O                    5    B25      2    A24      1    D23      0
       Variables:
  B1                    0.961                    
  B2                    2.9977                   
  B3                    1.70953                  
  B4                    2.70201                  
  B5                    1.70953                  
  B6                    2.9977                   
  B7                    2.70201                  
  B8                    2.99501                  
  B9                    1.70953                  
  B10                   2.70201                  
  B11                   1.70953                  
  B12                   2.99501                  
  B13                   2.70201                  
  B14                   1.45739                  
  B15                   2.9086                   
  B16                   2.10897                  
  B17                   2.54107                  
  B18                   1.27444                  
  B19                   2.02708                  
  B20                   2.59058                  
  B21                   1.33443                  
  B22                   2.3052                   
  B23                   2.35112                  
  B24                   1.53502                  
  B25                   2.1383                   
  A1                  120.57881                  
  A2                  110.29657                  
  A3                  112.68344                  
  A4                  110.29657                  
  A5                  120.57881                  
  A6                  112.68344                  
  A7                   63.25071                  
  A8                  110.29657                  
  A9                  112.68344                  
  A10                 110.29657                  
  A11                  63.25071                  
  A12                 112.68344                  
  A13                  94.88004                  
  A14                 100.45724                  
  A15                  86.92444                  
  A16                  98.4113                   
  A17                 102.03966                  
  A18                  78.48683                  
  A19                  99.77455                  
  A20                  94.49121                  
  A21                  90.6142                   
  A22                  99.69907                  
  A23                 109.9411                   
  A24                  90.95371                  
  D1                  -20.12804                  
  D2                    1.36571                  
  D3                  178.63429                  
  D4                 -161.23767                  
  D5                 -180.                       
  D6                 -113.97904                  
  D7                  -91.36571                  
  D8                  -90.                       
  D9                  178.63429                  
  D10                -113.97904                  
  D11                 180.                       
  D12                -115.94607                  
  D13                 126.32872                  
  D14                 123.40112                  
  D15                 126.96497                  
  D16                -123.3662                   
  D17                -122.80987                  
  D18                 124.56569                  
  D19                -111.84402                  
  D20                -105.27974                  
  D21                -146.70388                  
  D22                -106.90336                  
  D23                -124.11205                  
 

 GradGradGradGradGradGradGradGradGradGradGradGradGradGradGradGradGradGrad
 Berny optimization.
 Initialization pass.
                           ----------------------------
                           !    Initial Parameters    !
                           ! (Angstroms and Degrees)  !
 --------------------------                            --------------------------
 ! Name  Definition              Value          Derivative Info.                !
 --------------------------------------------------------------------------------
 ! R1    R(1,2)                  0.961          estimate D2E/DX2                !
 ! R2    R(2,4)                  1.7095         estimate D2E/DX2                !
 ! R3    R(2,6)                  1.7095         estimate D2E/DX2                !
 ! R4    R(2,10)                 1.7095         estimate D2E/DX2                !
 ! R5    R(2,12)                 1.7095         estimate D2E/DX2                !
 ! R6    R(3,5)                  0.9617         estimate D2E/DX2                !
 ! R7    R(3,17)                 1.1867         estimate D2E/DX2                !
 ! R8    R(4,5)                  0.9976         estimate D2E/DX2                !
 ! R9    R(5,25)                 1.535          estimate D2E/DX2                !
 ! R10   R(6,8)                  0.9976         estimate D2E/DX2                !
 ! R11   R(7,8)                  0.9617         estimate D2E/DX2                !
 ! R12   R(7,20)                 1.2205         estimate D2E/DX2                !
 ! R13   R(8,22)                 1.3344         estimate D2E/DX2                !
 ! R14   R(9,11)                 0.9617         estimate D2E/DX2                !
 ! R15   R(9,23)                 1.4706         estimate D2E/DX2                !
 ! R16   R(10,11)                0.9976         estimate D2E/DX2                !
 ! R17   R(11,15)                1.4574         estimate D2E/DX2                !
 ! R18   R(12,14)                0.9976         estimate D2E/DX2                !
 ! R19   R(13,14)                0.9617         estimate D2E/DX2                !
 ! R20   R(13,26)                1.5429         estimate D2E/DX2                !
 ! R21   R(14,19)                1.2744         estimate D2E/DX2                !
 ! R22   R(15,17)                0.9608         estimate D2E/DX2                !
 ! R23   R(16,17)                0.9979         estimate D2E/DX2                !
 ! R24   R(18,20)                0.9614         estimate D2E/DX2                !
 ! R25   R(19,20)                0.9986         estimate D2E/DX2                !
 ! R26   R(21,23)                0.9601         estimate D2E/DX2                !
 ! R27   R(22,23)                0.9983         estimate D2E/DX2                !
 ! R28   R(24,26)                0.9605         estimate D2E/DX2                !
 ! R29   R(25,26)                0.9987         estimate D2E/DX2                !
 ! A1    A(1,2,4)              110.2966         estimate D2E/DX2                !
 ! A2    A(1,2,6)              110.2966         estimate D2E/DX2                !
 ! A3    A(1,2,10)             110.2966         estimate D2E/DX2                !
 ! A4    A(1,2,12)             110.2966         estimate D2E/DX2                !
 ! A5    A(4,2,6)              139.4069         estimate D2E/DX2                !
 ! A6    A(4,2,10)              83.0891         estimate D2E/DX2                !
 ! A7    A(4,2,12)              83.0891         estimate D2E/DX2                !
 ! A8    A(6,2,10)              83.0891         estimate D2E/DX2                !
 ! A9    A(6,2,12)              83.0891         estimate D2E/DX2                !
 ! A10   A(10,2,12)            139.4069         estimate D2E/DX2                !
 ! A11   A(5,3,17)             157.9067         estimate D2E/DX2                !
 ! A12   A(2,4,5)              172.6592         estimate D2E/DX2                !
 ! A13   A(3,5,4)              102.3181         estimate D2E/DX2                !
 ! A14   A(3,5,25)             126.4699         estimate D2E/DX2                !
 ! A15   A(4,5,25)             108.9621         estimate D2E/DX2                !
 ! A16   A(2,6,8)              172.6592         estimate D2E/DX2                !
 ! A17   A(8,7,20)             142.8207         estimate D2E/DX2                !
 ! A18   A(6,8,7)              102.3181         estimate D2E/DX2                !
 ! A19   A(6,8,22)              93.9572         estimate D2E/DX2                !
 ! A20   A(7,8,22)             127.4496         estimate D2E/DX2                !
 ! A21   A(11,9,23)            152.7899         estimate D2E/DX2                !
 ! A22   A(2,10,11)            172.6592         estimate D2E/DX2                !
 ! A23   A(9,11,10)            102.3181         estimate D2E/DX2                !
 ! A24   A(9,11,15)            123.3866         estimate D2E/DX2                !
 ! A25   A(10,11,15)            94.6751         estimate D2E/DX2                !
 ! A26   A(2,12,14)            172.6592         estimate D2E/DX2                !
 ! A27   A(14,13,26)           156.8919         estimate D2E/DX2                !
 ! A28   A(12,14,13)           102.3181         estimate D2E/DX2                !
 ! A29   A(12,14,19)           102.4102         estimate D2E/DX2                !
 ! A30   A(13,14,19)           114.4959         estimate D2E/DX2                !
 ! A31   A(11,15,17)           145.7686         estimate D2E/DX2                !
 ! A32   A(3,17,15)            125.8164         estimate D2E/DX2                !
 ! A33   A(3,17,16)            127.1977         estimate D2E/DX2                !
 ! A34   A(15,17,16)           102.3615         estimate D2E/DX2                !
 ! A35   A(14,19,20)           125.7686         estimate D2E/DX2                !
 ! A36   A(7,20,18)             93.0293         estimate D2E/DX2                !
 ! A37   A(7,20,19)            157.1659         estimate D2E/DX2                !
 ! A38   A(18,20,19)           102.3022         estimate D2E/DX2                !
 ! A39   A(8,22,23)            162.1778         estimate D2E/DX2                !
 ! A40   A(9,23,21)             81.6769         estimate D2E/DX2                !
 ! A41   A(9,23,22)            105.0433         estimate D2E/DX2                !
 ! A42   A(21,23,22)           102.3264         estimate D2E/DX2                !
 ! A43   A(5,25,26)            113.4211         estimate D2E/DX2                !
 ! A44   A(13,26,24)           128.22           estimate D2E/DX2                !
 ! A45   A(13,26,25)           123.4827         estimate D2E/DX2                !
 ! A46   A(24,26,25)           102.3674         estimate D2E/DX2                !
 ! D1    D(1,2,4,5)            152.2165         estimate D2E/DX2                !
 ! D2    D(6,2,4,5)            -27.7835         estimate D2E/DX2                !
 ! D3    D(10,2,4,5)            43.0858         estimate D2E/DX2                !
 ! D4    D(12,2,4,5)           -98.6529         estimate D2E/DX2                !
 ! D5    D(1,2,6,8)            152.2165         estimate D2E/DX2                !
 ! D6    D(4,2,6,8)            -27.7835         estimate D2E/DX2                !
 ! D7    D(10,2,6,8)           -98.6529         estimate D2E/DX2                !
 ! D8    D(12,2,6,8)            43.0858         estimate D2E/DX2                !
 ! D9    D(1,2,10,11)          152.2165         estimate D2E/DX2                !
 ! D10   D(4,2,10,11)          -98.6529         estimate D2E/DX2                !
 ! D11   D(6,2,10,11)           43.0858         estimate D2E/DX2                !
 ! D12   D(12,2,10,11)         -27.7835         estimate D2E/DX2                !
 ! D13   D(1,2,12,14)          152.2165         estimate D2E/DX2                !
 ! D14   D(4,2,12,14)           43.0858         estimate D2E/DX2                !
 ! D15   D(6,2,12,14)          -98.6529         estimate D2E/DX2                !
 ! D16   D(10,2,12,14)         -27.7835         estimate D2E/DX2                !
 ! D17   D(17,3,5,4)            22.574          estimate D2E/DX2                !
 ! D18   D(17,3,5,25)         -102.5256         estimate D2E/DX2                !
 ! D19   D(5,3,17,15)          -56.0607         estimate D2E/DX2                !
 ! D20   D(5,3,17,16)          152.3989         estimate D2E/DX2                !
 ! D21   D(2,4,5,3)            -32.9358         estimate D2E/DX2                !
 ! D22   D(2,4,5,25)           102.9822         estimate D2E/DX2                !
 ! D23   D(3,5,25,26)           73.8519         estimate D2E/DX2                !
 ! D24   D(4,5,25,26)          -48.4565         estimate D2E/DX2                !
 ! D25   D(2,6,8,7)            -32.9358         estimate D2E/DX2                !
 ! D26   D(2,6,8,22)            96.7803         estimate D2E/DX2                !
 ! D27   D(20,7,8,6)            11.7814         estimate D2E/DX2                !
 ! D28   D(20,7,8,22)          -93.065          estimate D2E/DX2                !
 ! D29   D(8,7,20,18)          159.6373         estimate D2E/DX2                !
 ! D30   D(8,7,20,19)          -67.8693         estimate D2E/DX2                !
 ! D31   D(6,8,22,23)           54.9683         estimate D2E/DX2                !
 ! D32   D(7,8,22,23)          163.7735         estimate D2E/DX2                !
 ! D33   D(23,9,11,10)         -54.5937         estimate D2E/DX2                !
 ! D34   D(23,9,11,15)        -158.7063         estimate D2E/DX2                !
 ! D35   D(11,9,23,21)         175.433          estimate D2E/DX2                !
 ! D36   D(11,9,23,22)          74.8248         estimate D2E/DX2                !
 ! D37   D(2,10,11,9)          -32.9358         estimate D2E/DX2                !
 ! D38   D(2,10,11,15)          92.7253         estimate D2E/DX2                !
 ! D39   D(9,11,15,17)          75.0814         estimate D2E/DX2                !
 ! D40   D(10,11,15,17)        -32.993          estimate D2E/DX2                !
 ! D41   D(2,12,14,13)         -32.9358         estimate D2E/DX2                !
 ! D42   D(2,12,14,19)          85.9198         estimate D2E/DX2                !
 ! D43   D(26,13,14,12)         15.6284         estimate D2E/DX2                !
 ! D44   D(26,13,14,19)        -94.3233         estimate D2E/DX2                !
 ! D45   D(14,13,26,24)         76.775          estimate D2E/DX2                !
 ! D46   D(14,13,26,25)        -71.1923         estimate D2E/DX2                !
 ! D47   D(12,14,19,20)         -3.3653         estimate D2E/DX2                !
 ! D48   D(13,14,19,20)        106.5307         estimate D2E/DX2                !
 ! D49   D(11,15,17,3)          59.1859         estimate D2E/DX2                !
 ! D50   D(11,15,17,16)       -143.6814         estimate D2E/DX2                !
 ! D51   D(14,19,20,7)          55.775          estimate D2E/DX2                !
 ! D52   D(14,19,20,18)       -173.1308         estimate D2E/DX2                !
 ! D53   D(8,22,23,9)          -78.1366         estimate D2E/DX2                !
 ! D54   D(8,22,23,21)        -162.7026         estimate D2E/DX2                !
 ! D55   D(5,25,26,13)          78.5173         estimate D2E/DX2                !
 ! D56   D(5,25,26,24)         -76.2303         estimate D2E/DX2                !
 --------------------------------------------------------------------------------
 Trust Radius=3.00D-01 FncErr=1.00D-07 GrdErr=1.00D-06
 Number of steps in this run= 156 maximum allowed number of steps= 156.
 GradGradGradGradGradGradGradGradGradGradGradGradGradGradGradGradGradGrad

                          Input orientation:                          
 ---------------------------------------------------------------------
 Center     Atomic     Atomic              Coordinates (Angstroms)
 Number     Number      Type              X           Y           Z
 ---------------------------------------------------------------------
    1          1             0        0.000000    0.000000    0.000000
    2          8             0        0.000000    0.000000    0.961000
    3          1             0        2.580812    0.000000    2.486000
    4          1             0        1.505457   -0.551755    1.554000
    5          8             0        2.360529   -0.801858    2.003000
    6          1             0       -1.505457    0.551755    1.554000
    7          1             0       -2.580812    0.000000    2.486000
    8          8             0       -2.360529    0.801858    2.003000
    9          1             0        0.000000    2.580812    2.486000
   10          1             0        0.551755    1.505457    1.554000
   11          8             0        0.801858    2.360529    2.003000
   12          1             0       -0.551755   -1.505457    1.554000
   13          1             0        0.000000   -2.580812    2.486000
   14          8             0       -0.801858   -2.360529    2.003000
   15          1             0        1.996200    1.816868    2.637000
   16          1             0        2.944166    1.433544    3.770000
   17          8             0        2.403843    1.040205    3.029000
   18          1             0       -2.779324   -1.177084    3.541000
   19          1             0       -1.781367   -2.007637    2.738000
   20          8             0       -2.129002   -1.077113    2.840000
   21          1             0       -1.237880    2.892058    3.509000
   22          1             0       -1.873903    1.940667    2.500000
   23          8             0       -1.445106    2.839265    2.573000
   24          1             0        1.590045   -1.883766    3.943000
   25          1             0        2.220615   -2.212461    2.592000
   26          8             0        1.384450   -2.339774    3.123000
 ---------------------------------------------------------------------
                    Distance matrix (angstroms):
                    1          2          3          4          5
     1  H    0.000000
     2  O    0.961000   0.000000
     3  H    3.583404   2.997701   0.000000
     4  H    2.232879   1.709527   1.526252   0.000000
     5  O    3.197981   2.702006   0.961660   0.997648   0.000000
     6  H    2.232879   1.709527   4.227369   3.206764   4.120645
     7  H    3.583404   2.997701   5.161623   4.227369   5.029226
     8  O    3.197981   2.702006   5.029226   4.120645   4.986010
     9  H    3.583404   2.997701   3.649819   3.598333   4.153052
    10  H    2.232879   1.709527   2.692972   2.267525   2.965968
    11  O    3.197981   2.702006   2.995006   3.029530   3.525641
    12  H    2.232879   1.709527   3.598333   2.267525   3.029530
    13  H    3.583404   2.997701   3.649819   2.692972   2.995006
    14  O    3.197981   2.702006   4.153052   2.965968   3.525641
    15  H    3.773539   3.177232   1.914571   2.650301   2.718901
    16  H    4.993602   4.314353   1.958502   3.304838   2.908599
    17  O    4.004414   3.337231   1.186674   2.348842   2.108969
    18  H    4.652833   3.970714   5.588346   4.764300   5.378135
    19  H    3.834125   3.218944   4.808608   3.784793   4.376006
    20  O    3.709234   3.037015   4.844361   3.890898   4.575174
    21  H    4.712688   4.048290   4.898258   4.817444   5.372299
    22  H    3.678002   3.105837   4.859102   4.304318   5.069405
    23  O    4.095130   3.570476   4.927170   4.609034   5.297692
    24  H    4.650169   3.868998   2.579349   2.736555   2.351121
    25  H    4.067503   3.533592   2.244095   2.084908   1.535023
    26  O    4.140577   3.473541   2.703996   2.381894   2.138298
                    6          7          8          9         10
     6  H    0.000000
     7  H    1.526252   0.000000
     8  O    0.997648   0.961660   0.000000
     9  H    2.692972   3.649819   2.995006   0.000000
    10  H    2.267525   3.598333   3.029530   1.526252   0.000000
    11  O    2.965968   4.153052   3.525641   0.961660   0.997648
    12  H    2.267525   2.692972   2.965968   4.227369   3.206764
    13  H    3.598333   3.649819   4.153052   5.161623   4.227369
    14  O    3.029530   2.995006   3.525641   5.029226   4.120645
    15  H    3.877500   4.926748   4.518107   2.142715   1.832018
    16  H    5.048500   5.850563   5.626821   3.410718   3.261819
    17  O    4.206761   5.120904   4.879419   2.906334   2.412947
    18  H    2.925712   1.593097   2.541071   4.791602   4.715960
    19  H    2.833455   2.175597   2.961235   4.928552   4.380313
    20  O    2.166983   1.220500   2.069953   4.247161   3.938263
    21  H    3.061150   3.348730   2.810216   1.635772   2.991234
    22  H    1.720391   2.065454   1.334428   1.980277   2.639724
    23  O    2.504936   3.059219   2.305195   1.470612   2.608612
    24  H    4.606649   4.802861   5.155892   4.958180   4.274600
    25  H    4.754150   5.287714   5.515426   5.283732   4.205407
    26  O    4.378843   4.647968   5.014890   5.151178   4.235675
                   11         12         13         14         15
    11  O    0.000000
    12  H    4.120645   0.000000
    13  H    5.029226   1.526252   0.000000
    14  O    4.986010   0.997648   0.961660   0.000000
    15  H    1.457387   4.324674   4.831895   5.067715   0.000000
    16  H    2.927640   5.076401   5.141189   5.616937   1.526193
    17  O    2.315661   4.170321   4.380077   4.784787   0.960751
    18  H    5.263555   3.003009   3.287571   2.770624   5.708467
    19  H    5.127782   1.779322   1.888200   1.274439   5.376528
    20  O    4.594332   2.079659   2.630413   2.027075   5.043176
    21  H    2.590577   4.861165   5.703611   5.481589   3.517910
    22  H    2.753724   3.810349   4.894433   4.460558   3.874506
    23  O    2.367052   4.551159   5.610092   5.270344   3.590540
    24  H    4.732746   3.230750   2.266488   3.116425   3.945288
    25  H    4.824109   3.043572   2.253453   3.082886   4.035825
    26  O    4.866895   2.628067   1.542909   2.456577   4.229434
                   16         17         18         19         20
    16  H    0.000000
    17  O    0.997871   0.000000
    18  H    6.294932   5.660719   0.000000
    19  H    5.936111   5.185557   1.526613   0.000000
    20  O    5.736317   5.006539   0.961413   0.998563   0.000000
    21  H    4.436766   4.113624   4.351435   4.989672   4.122618
    22  H    5.008380   4.403383   3.409374   3.956552   3.047568
    23  O    4.761783   4.273051   4.341453   4.861353   3.984598
    24  H    3.587216   3.169743   4.444367   3.582428   3.962147
    25  H    3.899303   3.287002   5.193458   4.009879   4.502186
    26  O    4.133916   3.531609   4.343223   3.206390   3.744161
                   21         22         23         24         25
    21  H    0.000000
    22  H    1.525698   0.000000
    23  O    0.960118   0.998336   0.000000
    24  H    5.567227   5.357936   5.778933   0.000000
    25  H    6.233633   5.832839   6.241619   1.526715   0.000000
    26  O    5.864953   5.415456   5.927169   0.960527   0.998670
                   26
    26  O    0.000000
 Stoichiometry    H17O9(1-)
 Framework group  C1[X(H17O9)]
 Deg. of freedom    72
 Full point group                 C1
 Largest Abelian subgroup         C1      NOp   1
 Largest concise Abelian subgroup C1      NOp   1
                         Standard orientation:                         
 ---------------------------------------------------------------------
 Center     Atomic     Atomic              Coordinates (Angstroms)
 Number     Number      Type              X           Y           Z
 ---------------------------------------------------------------------
    1          1             0       -0.112083    0.112997    2.306450
    2          8             0       -0.058064    0.089628    1.347254
    3          1             0        1.709352   -1.899954   -0.032606
    4          1             0        1.373630   -0.703170    0.853083
    5          8             0        2.145240   -1.197549    0.458737
    6          1             0       -1.423091    0.853587    0.657653
    7          1             0       -1.654036    2.005043   -0.317159
    8          8             0       -2.144224    1.326129    0.155684
    9          1             0       -1.924635   -1.633990   -0.243741
   10          1             0       -0.804025   -1.326020    0.745618
   11          8             0       -1.262646   -2.084934    0.288435
   12          1             0        0.754563    1.476437    0.765117
   13          1             0        1.979951    1.739080   -0.106024
   14          8             0        1.263662    2.213514    0.325986
   15          1             0       -0.037498   -2.648647   -0.264028
   16          1             0        0.933869   -3.142878   -1.332413
   17          8             0        0.837681   -2.459037   -0.612097
   18          1             0       -0.833665    2.898785   -1.349717
   19          1             0        0.399765    2.706071   -0.471048
   20          8             0       -0.524933    2.358503   -0.616849
   21          1             0       -2.909198   -0.925752   -1.341368
   22          1             0       -2.660663    0.201689   -0.343941
   23          8             0       -3.056907   -0.711715   -0.417140
   24          1             0        2.570657    0.045198   -1.491230
   25          1             0        3.154250   -0.184205   -0.099234
   26          8             0        2.735549    0.518677   -0.671937
 ---------------------------------------------------------------------
 Rotational constants (GHZ):      0.9655559      0.8290410      0.5128942
 Standard basis: Aug-CC-pVTZ (5D, 7F)
 There are   805 symmetry adapted basis functions of A   symmetry.
 Integral buffers will be    131072 words long.
 Raffenetti 2 integral format.
 Two-electron integral symmetry is turned on.
   805 basis functions,  1116 primitive gaussians,   920 cartesian basis functions
    45 alpha electrons       45 beta electrons
       nuclear repulsion energy       642.3761265571 Hartrees.
 NAtoms=   26 NActive=   26 NUniq=   26 SFac= 7.50D-01 NAtFMM=   80 NAOKFM=F Big=F
 One-electron integrals computed using PRISM.
 NBasis=   805 RedAO= T  NBF=   805
 NBsUse=   805 1.00D-06 NBFU=   805
 Harris functional with IExCor=  402 diagonalized for initial guess.
 ExpMin= 2.53D-02 ExpMax= 1.53D+04 ExpMxC= 5.22D+02 IAcc=3 IRadAn=         5 AccDes= 0.00D+00
 HarFok:  IExCor= 402 AccDes= 0.00D+00 IRadAn=         5 IDoV=1
 ScaDFX=  1.000000  1.000000  1.000000  1.000000
 Initial guess orbital symmetries:
       Occupied  (A) (A) (A) (A) (A) (A) (A) (A) (A) (A) (A) (A)
                 (A) (A) (A) (A) (A) (A) (A) (A) (A) (A) (A) (A)
                 (A) (A) (A) (A) (A) (A) (A) (A) (A) (A) (A) (A)
                 (A) (A) (A) (A) (A) (A) (A) (A) (A)
       Virtual   (A) (A) (A) (A) (A) (A) (A) (A) (A) (A) (A) (A)
                 (A) (A) (A) (A) (A) (A) (A) (A) (A) (A) (A) (A)
                 (A) (A) (A) (A) (A) (A) (A) (A) (A) (A) (A) (A)
                 (A) (A) (A) (A) (A) (A) (A) (A) (A) (A) (A) (A)
                 (A) (A) (A) (A) (A) (A) (A) (A) (A) (A) (A) (A)
                 (A) (A) (A) (A) (A) (A) (A) (A) (A) (A) (A) (A)
                 (A) (A) (A) (A) (A) (A) (A) (A) (A) (A) (A) (A)
                 (A) (A) (A) (A) (A) (A) (A) (A) (A) (A) (A) (A)
                 (A) (A) (A) (A) (A) (A) (A) (A) (A) (A) (A) (A)
                 (A) (A) (A) (A) (A) (A) (A) (A) (A) (A) (A) (A)
                 (A) (A) (A) (A) (A) (A) (A) (A) (A) (A) (A) (A)
                 (A) (A) (A) (A) (A) (A) (A) (A) (A) (A) (A) (A)
                 (A) (A) (A) (A) (A) (A) (A) (A) (A) (A) (A) (A)
                 (A) (A) (A) (A) (A) (A) (A) (A) (A) (A) (A) (A)
                 (A) (A) (A) (A) (A) (A) (A) (A) (A) (A) (A) (A)
                 (A) (A) (A) (A) (A) (A) (A) (A) (A) (A) (A) (A)
                 (A) (A) (A) (A) (A) (A) (A) (A) (A) (A) (A) (A)
                 (A) (A) (A) (A) (A) (A) (A) (A) (A) (A) (A) (A)
                 (A) (A) (A) (A) (A) (A) (A) (A) (A) (A) (A) (A)
                 (A) (A) (A) (A) (A) (A) (A) (A) (A) (A) (A) (A)
                 (A) (A) (A) (A) (A) (A) (A) (A) (A) (A) (A) (A)
                 (A) (A) (A) (A) (A) (A) (A) (A) (A) (A) (A) (A)
                 (A) (A) (A) (A) (A) (A) (A) (A) (A) (A) (A) (A)
                 (A) (A) (A) (A) (A) (A) (A) (A) (A) (A) (A) (A)
                 (A) (A) (A) (A) (A) (A) (A) (A) (A) (A) (A) (A)
                 (A) (A) (A) (A) (A) (A) (A) (A) (A) (A) (A) (A)
                 (A) (A) (A) (A) (A) (A) (A) (A) (A) (A) (A) (A)
                 (A) (A) (A) (A) (A) (A) (A) (A) (A) (A) (A) (A)
                 (A) (A) (A) (A) (A) (A) (A) (A) (A) (A) (A) (A)
                 (A) (A) (A) (A) (A) (A) (A) (A) (A) (A) (A) (A)
                 (A) (A) (A) (A) (A) (A) (A) (A) (A) (A) (A) (A)
                 (A) (A) (A) (A) (A) (A) (A) (A) (A) (A) (A) (A)
                 (A) (A) (A) (A) (A) (A) (A) (A) (A) (A) (A) (A)
                 (A) (A) (A) (A) (A) (A) (A) (A) (A) (A) (A) (A)
                 (A) (A) (A) (A) (A) (A) (A) (A) (A) (A) (A) (A)
                 (A) (A) (A) (A) (A) (A) (A) (A) (A) (A) (A) (A)
                 (A) (A) (A) (A) (A) (A) (A) (A) (A) (A) (A) (A)
                 (A) (A) (A) (A) (A) (A) (A) (A) (A) (A) (A) (A)
                 (A) (A) (A) (A) (A) (A) (A) (A) (A) (A) (A) (A)
                 (A) (A) (A) (A) (A) (A) (A) (A) (A) (A) (A) (A)
                 (A) (A) (A) (A) (A) (A) (A) (A) (A) (A) (A) (A)
                 (A) (A) (A) (A) (A) (A) (A) (A) (A) (A) (A) (A)
                 (A) (A) (A) (A) (A) (A) (A) (A) (A) (A) (A) (A)
                 (A) (A) (A) (A) (A) (A) (A) (A) (A) (A) (A) (A)
                 (A) (A) (A) (A) (A) (A) (A) (A) (A) (A) (A) (A)
                 (A) (A) (A) (A) (A) (A) (A) (A) (A) (A) (A) (A)
                 (A) (A) (A) (A) (A) (A) (A) (A) (A) (A) (A) (A)
                 (A) (A) (A) (A) (A) (A) (A) (A) (A) (A) (A) (A)
                 (A) (A) (A) (A) (A) (A) (A) (A) (A) (A) (A) (A)
                 (A) (A) (A) (A) (A) (A) (A) (A) (A) (A) (A) (A)
                 (A) (A) (A) (A) (A) (A) (A) (A) (A) (A) (A) (A)
                 (A) (A) (A) (A) (A) (A) (A) (A) (A) (A) (A) (A)
                 (A) (A) (A) (A) (A) (A) (A) (A) (A) (A) (A) (A)
                 (A) (A) (A) (A) (A) (A) (A) (A) (A) (A) (A) (A)
                 (A) (A) (A) (A) (A) (A) (A) (A) (A) (A) (A) (A)
                 (A) (A) (A) (A) (A) (A) (A) (A) (A) (A) (A) (A)
                 (A) (A) (A) (A) (A) (A) (A) (A) (A) (A) (A) (A)
                 (A) (A) (A) (A) (A) (A) (A) (A) (A) (A) (A) (A)
                 (A) (A) (A) (A) (A) (A) (A) (A) (A) (A) (A) (A)
                 (A) (A) (A) (A) (A) (A) (A) (A) (A) (A) (A) (A)
                 (A) (A) (A) (A) (A) (A) (A) (A) (A) (A) (A) (A)
                 (A) (A) (A) (A) (A) (A) (A) (A) (A) (A) (A) (A)
                 (A) (A) (A) (A) (A) (A) (A) (A) (A) (A) (A) (A)
                 (A) (A) (A) (A)
 The electronic state of the initial guess is 1-A.
 Requested convergence on RMS density matrix=1.00D-08 within 128 cycles.
 Requested convergence on MAX density matrix=1.00D-06.
 Requested convergence on             energy=1.00D-06.
 No special actions if energy rises.
 EnCoef did     3 forward-backward iterations
 EnCoef did     2 forward-backward iterations
 SCF Done:  E(RB+HF-LYP) =  -687.500095727     A.U. after   16 cycles
             Convg  =    0.4770D-08             -V/T =  2.0023
             S**2   =   0.0000

 **********************************************************************

            Population analysis using the SCF density.

 **********************************************************************

 Orbital symmetries:
       Occupied  (A) (A) (A) (A) (A) (A) (A) (A) (A) (A) (A) (A)
                 (A) (A) (A) (A) (A) (A) (A) (A) (A) (A) (A) (A)
                 (A) (A) (A) (A) (A) (A) (A) (A) (A) (A) (A) (A)
                 (A) (A) (A) (A) (A) (A) (A) (A) (A)
       Virtual   (A) (A) (A) (A) (A) (A) (A) (A) (A) (A) (A) (A)
                 (A) (A) (A) (A) (A) (A) (A) (A) (A) (A) (A) (A)
                 (A) (A) (A) (A) (A) (A) (A) (A) (A) (A) (A) (A)
                 (A) (A) (A) (A) (A) (A) (A) (A) (A) (A) (A) (A)
                 (A) (A) (A) (A) (A) (A) (A) (A) (A) (A) (A) (A)
                 (A) (A) (A) (A) (A) (A) (A) (A) (A) (A) (A) (A)
                 (A) (A) (A) (A) (A) (A) (A) (A) (A) (A) (A) (A)
                 (A) (A) (A) (A) (A) (A) (A) (A) (A) (A) (A) (A)
                 (A) (A) (A) (A) (A) (A) (A) (A) (A) (A) (A) (A)
                 (A) (A) (A) (A) (A) (A) (A) (A) (A) (A) (A) (A)
                 (A) (A) (A) (A) (A) (A) (A) (A) (A) (A) (A) (A)
                 (A) (A) (A) (A) (A) (A) (A) (A) (A) (A) (A) (A)
                 (A) (A) (A) (A) (A) (A) (A) (A) (A) (A) (A) (A)
                 (A) (A) (A) (A) (A) (A) (A) (A) (A) (A) (A) (A)
                 (A) (A) (A) (A) (A) (A) (A) (A) (A) (A) (A) (A)
                 (A) (A) (A) (A) (A) (A) (A) (A) (A) (A) (A) (A)
                 (A) (A) (A) (A) (A) (A) (A) (A) (A) (A) (A) (A)
                 (A) (A) (A) (A) (A) (A) (A) (A) (A) (A) (A) (A)
                 (A) (A) (A) (A) (A) (A) (A) (A) (A) (A) (A) (A)
                 (A) (A) (A) (A) (A) (A) (A) (A) (A) (A) (A) (A)
                 (A) (A) (A) (A) (A) (A) (A) (A) (A) (A) (A) (A)
                 (A) (A) (A) (A) (A) (A) (A) (A) (A) (A) (A) (A)
                 (A) (A) (A) (A) (A) (A) (A) (A) (A) (A) (A) (A)
                 (A) (A) (A) (A) (A) (A) (A) (A) (A) (A) (A) (A)
                 (A) (A) (A) (A) (A) (A) (A) (A) (A) (A) (A) (A)
                 (A) (A) (A) (A) (A) (A) (A) (A) (A) (A) (A) (A)
                 (A) (A) (A) (A) (A) (A) (A) (A) (A) (A) (A) (A)
                 (A) (A) (A) (A) (A) (A) (A) (A) (A) (A) (A) (A)
                 (A) (A) (A) (A) (A) (A) (A) (A) (A) (A) (A) (A)
                 (A) (A) (A) (A) (A) (A) (A) (A) (A) (A) (A) (A)
                 (A) (A) (A) (A) (A) (A) (A) (A) (A) (A) (A) (A)
                 (A) (A) (A) (A) (A) (A) (A) (A) (A) (A) (A) (A)
                 (A) (A) (A) (A) (A) (A) (A) (A) (A) (A) (A) (A)
                 (A) (A) (A) (A) (A) (A) (A) (A) (A) (A) (A) (A)
                 (A) (A) (A) (A) (A) (A) (A) (A) (A) (A) (A) (A)
                 (A) (A) (A) (A) (A) (A) (A) (A) (A) (A) (A) (A)
                 (A) (A) (A) (A) (A) (A) (A) (A) (A) (A) (A) (A)
                 (A) (A) (A) (A) (A) (A) (A) (A) (A) (A) (A) (A)
                 (A) (A) (A) (A) (A) (A) (A) (A) (A) (A) (A) (A)
                 (A) (A) (A) (A) (A) (A) (A) (A) (A) (A) (A) (A)
                 (A) (A) (A) (A) (A) (A) (A) (A) (A) (A) (A) (A)
                 (A) (A) (A) (A) (A) (A) (A) (A) (A) (A) (A) (A)
                 (A) (A) (A) (A) (A) (A) (A) (A) (A) (A) (A) (A)
                 (A) (A) (A) (A) (A) (A) (A) (A) (A) (A) (A) (A)
                 (A) (A) (A) (A) (A) (A) (A) (A) (A) (A) (A) (A)
                 (A) (A) (A) (A) (A) (A) (A) (A) (A) (A) (A) (A)
                 (A) (A) (A) (A) (A) (A) (A) (A) (A) (A) (A) (A)
                 (A) (A) (A) (A) (A) (A) (A) (A) (A) (A) (A) (A)
                 (A) (A) (A) (A) (A) (A) (A) (A) (A) (A) (A) (A)
                 (A) (A) (A) (A) (A) (A) (A) (A) (A) (A) (A) (A)
                 (A) (A) (A) (A) (A) (A) (A) (A) (A) (A) (A) (A)
                 (A) (A) (A) (A) (A) (A) (A) (A) (A) (A) (A) (A)
                 (A) (A) (A) (A) (A) (A) (A) (A) (A) (A) (A) (A)
                 (A) (A) (A) (A) (A) (A) (A) (A) (A) (A) (A) (A)
                 (A) (A) (A) (A) (A) (A) (A) (A) (A) (A) (A) (A)
                 (A) (A) (A) (A) (A) (A) (A) (A) (A) (A) (A) (A)
                 (A) (A) (A) (A) (A) (A) (A) (A) (A) (A) (A) (A)
                 (A) (A) (A) (A) (A) (A) (A) (A) (A) (A) (A) (A)
                 (A) (A) (A) (A) (A) (A) (A) (A) (A) (A) (A) (A)
                 (A) (A) (A) (A) (A) (A) (A) (A) (A) (A) (A) (A)
                 (A) (A) (A) (A) (A) (A) (A) (A) (A) (A) (A) (A)
                 (A) (A) (A) (A) (A) (A) (A) (A) (A) (A) (A) (A)
                 (A) (A) (A) (A) (A) (A) (A) (A) (A) (A) (A) (A)
                 (A) (A) (A) (A)
 The electronic state is 1-A.
 Alpha  occ. eigenvalues --  -18.99585 -18.97002 -18.96562 -18.95616 -18.94613
 Alpha  occ. eigenvalues --  -18.93584 -18.91753 -18.90670 -18.89296  -0.92028
 Alpha  occ. eigenvalues --   -0.91644  -0.87895  -0.87016  -0.84644  -0.82416
 Alpha  occ. eigenvalues --   -0.80455  -0.79379  -0.75078  -0.45300  -0.42513
 Alpha  occ. eigenvalues --   -0.41735  -0.40489  -0.37155  -0.36797  -0.34977
 Alpha  occ. eigenvalues --   -0.33472  -0.31886  -0.28992  -0.27816  -0.25422
 Alpha  occ. eigenvalues --   -0.23848  -0.23402  -0.22928  -0.21089  -0.19367
 Alpha  occ. eigenvalues --   -0.17927  -0.16039  -0.15455  -0.14876  -0.13138
 Alpha  occ. eigenvalues --   -0.12711  -0.12342  -0.10932  -0.10453  -0.08354
 Alpha virt. eigenvalues --    0.07286   0.08501   0.09665   0.10540   0.11025
 Alpha virt. eigenvalues --    0.11818   0.12431   0.13104   0.13460   0.14002
 Alpha virt. eigenvalues --    0.14194   0.14845   0.15463   0.15982   0.16357
 Alpha virt. eigenvalues --    0.16519   0.16774   0.17205   0.18465   0.18620
 Alpha virt. eigenvalues --    0.19818   0.20754   0.21484   0.22012   0.22801
 Alpha virt. eigenvalues --    0.23277   0.23925   0.24400   0.24649   0.25321
 Alpha virt. eigenvalues --    0.25512   0.25751   0.26595   0.26813   0.26884
 Alpha virt. eigenvalues --    0.27413   0.28043   0.28584   0.29355   0.29688
 Alpha virt. eigenvalues --    0.29903   0.30023   0.30332   0.30868   0.31387
 Alpha virt. eigenvalues --    0.31758   0.32645   0.33394   0.34199   0.34496
 Alpha virt. eigenvalues --    0.35213   0.35796   0.36238   0.36777   0.36936
 Alpha virt. eigenvalues --    0.38244   0.38550   0.38733   0.39357   0.40216
 Alpha virt. eigenvalues --    0.40729   0.41663   0.42012   0.43351   0.43466
 Alpha virt. eigenvalues --    0.44204   0.44466   0.44567   0.45509   0.46088
 Alpha virt. eigenvalues --    0.46393   0.46658   0.47264   0.47310   0.47928
 Alpha virt. eigenvalues --    0.48112   0.48559   0.49219   0.49479   0.49841
 Alpha virt. eigenvalues --    0.49932   0.50272   0.50794   0.51194   0.51426
 Alpha virt. eigenvalues --    0.51616   0.52485   0.52795   0.53162   0.53601
 Alpha virt. eigenvalues --    0.53981   0.54194   0.54279   0.55042   0.55373
 Alpha virt. eigenvalues --    0.55642   0.56237   0.56794   0.57640   0.57720
 Alpha virt. eigenvalues --    0.58349   0.58777   0.59275   0.60065   0.60244
 Alpha virt. eigenvalues --    0.60578   0.61588   0.61788   0.62809   0.63376
 Alpha virt. eigenvalues --    0.63581   0.64523   0.64799   0.65055   0.65672
 Alpha virt. eigenvalues --    0.66169   0.67095   0.67587   0.68505   0.69810
 Alpha virt. eigenvalues --    0.70326   0.70548   0.71607   0.72394   0.73190
 Alpha virt. eigenvalues --    0.73641   0.74377   0.74814   0.75849   0.76194
 Alpha virt. eigenvalues --    0.77453   0.77850   0.78145   0.79242   0.80327
 Alpha virt. eigenvalues --    0.81394   0.81984   0.82278   0.83410   0.83804
 Alpha virt. eigenvalues --    0.84245   0.85200   0.85880   0.86389   0.87774
 Alpha virt. eigenvalues --    0.87977   0.88944   0.89330   0.90070   0.91123
 Alpha virt. eigenvalues --    0.91387   0.91707   0.92990   0.93546   0.93769
 Alpha virt. eigenvalues --    0.94146   0.94349   0.95230   0.95677   0.96070
 Alpha virt. eigenvalues --    0.96253   0.97706   0.98020   0.98328   0.98678
 Alpha virt. eigenvalues --    0.99759   1.00445   1.01070   1.01511   1.01813
 Alpha virt. eigenvalues --    1.02173   1.03067   1.03272   1.03455   1.04190
 Alpha virt. eigenvalues --    1.04771   1.05538   1.05955   1.06383   1.07035
 Alpha virt. eigenvalues --    1.07265   1.07520   1.08114   1.08929   1.09165
 Alpha virt. eigenvalues --    1.09611   1.10457   1.10703   1.11991   1.12435
 Alpha virt. eigenvalues --    1.13245   1.13729   1.13848   1.14649   1.15157
 Alpha virt. eigenvalues --    1.15722   1.16032   1.16251   1.16453   1.17605
 Alpha virt. eigenvalues --    1.19301   1.19677   1.19984   1.20689   1.21135
 Alpha virt. eigenvalues --    1.21598   1.22172   1.23650   1.24059   1.24190
 Alpha virt. eigenvalues --    1.25003   1.25457   1.25934   1.26521   1.26714
 Alpha virt. eigenvalues --    1.27543   1.28029   1.29613   1.30259   1.31030
 Alpha virt. eigenvalues --    1.31261   1.31541   1.32089   1.32616   1.33703
 Alpha virt. eigenvalues --    1.34661   1.34951   1.35234   1.35958   1.36138
 Alpha virt. eigenvalues --    1.37114   1.37563   1.38005   1.38625   1.39035
 Alpha virt. eigenvalues --    1.40680   1.41410   1.42176   1.42509   1.43812
 Alpha virt. eigenvalues --    1.44476   1.44952   1.45254   1.46100   1.46963
 Alpha virt. eigenvalues --    1.47803   1.48201   1.48903   1.49646   1.50885
 Alpha virt. eigenvalues --    1.51127   1.51280   1.52911   1.53369   1.53793
 Alpha virt. eigenvalues --    1.54534   1.55277   1.55746   1.56896   1.57967
 Alpha virt. eigenvalues --    1.58274   1.58468   1.60207   1.60875   1.61126
 Alpha virt. eigenvalues --    1.61290   1.63360   1.64499   1.65262   1.66365
 Alpha virt. eigenvalues --    1.66913   1.67123   1.67809   1.68765   1.69225
 Alpha virt. eigenvalues --    1.70305   1.70883   1.71091   1.71565   1.72494
 Alpha virt. eigenvalues --    1.72871   1.73728   1.75277   1.75719   1.76050
 Alpha virt. eigenvalues --    1.76938   1.77749   1.78774   1.78967   1.79425
 Alpha virt. eigenvalues --    1.79786   1.81392   1.81547   1.82625   1.82918
 Alpha virt. eigenvalues --    1.84063   1.84843   1.86257   1.86489   1.87454
 Alpha virt. eigenvalues --    1.87903   1.88843   1.90148   1.90328   1.90940
 Alpha virt. eigenvalues --    1.92274   1.92569   1.93594   1.94257   1.95405
 Alpha virt. eigenvalues --    1.96595   1.97301   1.98625   1.99477   2.00001
 Alpha virt. eigenvalues --    2.00700   2.01476   2.01615   2.03101   2.04786
 Alpha virt. eigenvalues --    2.05211   2.06223   2.07155   2.07589   2.09122
 Alpha virt. eigenvalues --    2.09595   2.11101   2.12503   2.12744   2.13735
 Alpha virt. eigenvalues --    2.15329   2.16715   2.18388   2.18936   2.19630
 Alpha virt. eigenvalues --    2.20713   2.22414   2.22747   2.24686   2.26655
 Alpha virt. eigenvalues --    2.27430   2.29208   2.30993   2.31660   2.33601
 Alpha virt. eigenvalues --    2.34357   2.35619   2.36104   2.37943   2.39398
 Alpha virt. eigenvalues --    2.40007   2.41935   2.43135   2.44128   2.44911
 Alpha virt. eigenvalues --    2.45681   2.46477   2.47923   2.48382   2.49920
 Alpha virt. eigenvalues --    2.50365   2.51259   2.51631   2.52479   2.53078
 Alpha virt. eigenvalues --    2.54233   2.54552   2.55610   2.57055   2.57320
 Alpha virt. eigenvalues --    2.58471   2.59383   2.60173   2.60989   2.61604
 Alpha virt. eigenvalues --    2.62731   2.63327   2.64512   2.64980   2.65801
 Alpha virt. eigenvalues --    2.66127   2.67000   2.68116   2.69002   2.69118
 Alpha virt. eigenvalues --    2.70749   2.70839   2.71667   2.72069   2.74180
 Alpha virt. eigenvalues --    2.74569   2.76088   2.76507   2.77299   2.77563
 Alpha virt. eigenvalues --    2.78024   2.79601   2.80045   2.80387   2.80666
 Alpha virt. eigenvalues --    2.82259   2.83433   2.85138   2.85336   2.86035
 Alpha virt. eigenvalues --    2.86674   2.87304   2.87696   2.88656   2.90144
 Alpha virt. eigenvalues --    2.90474   2.91421   2.91967   2.93325   2.94548
 Alpha virt. eigenvalues --    2.95139   2.95500   2.96353   2.96732   2.98724
 Alpha virt. eigenvalues --    2.99821   3.00916   3.01927   3.02665   3.05231
 Alpha virt. eigenvalues --    3.05720   3.07080   3.07656   3.10172   3.10700
 Alpha virt. eigenvalues --    3.11959   3.12206   3.13203   3.13881   3.14688
 Alpha virt. eigenvalues --    3.17292   3.18646   3.19657   3.20772   3.21422
 Alpha virt. eigenvalues --    3.22620   3.23700   3.24575   3.26337   3.27375
 Alpha virt. eigenvalues --    3.29050   3.29807   3.32099   3.33024   3.33183
 Alpha virt. eigenvalues --    3.34635   3.36948   3.40477   3.43384   3.44332
 Alpha virt. eigenvalues --    3.47028   3.51344   3.51880   3.55603   3.59689
 Alpha virt. eigenvalues --    3.60445   3.63314   3.67815   3.84250   3.87897
 Alpha virt. eigenvalues --    3.88135   3.92654   3.96351   4.01685   4.02048
 Alpha virt. eigenvalues --    4.05146   4.05510   4.07222   4.07562   4.09499
 Alpha virt. eigenvalues --    4.10215   4.11529   4.12041   4.12778   4.13404
 Alpha virt. eigenvalues --    4.14623   4.15877   4.16738   4.17552   4.18296
 Alpha virt. eigenvalues --    4.19929   4.21164   4.22065   4.23333   4.24748
 Alpha virt. eigenvalues --    4.25182   4.27047   4.28097   4.28557   4.28640
 Alpha virt. eigenvalues --    4.30131   4.31839   4.32708   4.33449   4.34368
 Alpha virt. eigenvalues --    4.36414   4.37752   4.38700   4.40001   4.40254
 Alpha virt. eigenvalues --    4.41700   4.42370   4.43164   4.44383   4.45390
 Alpha virt. eigenvalues --    4.46227   4.46891   4.47805   4.49128   4.50844
 Alpha virt. eigenvalues --    4.52673   4.53038   4.54136   4.54842   4.55301
 Alpha virt. eigenvalues --    4.56544   4.58291   4.58878   4.59678   4.60422
 Alpha virt. eigenvalues --    4.61211   4.62366   4.63711   4.64318   4.65938
 Alpha virt. eigenvalues --    4.66808   4.67895   4.68741   4.69441   4.69736
 Alpha virt. eigenvalues --    4.70850   4.71491   4.72506   4.73493   4.73950
 Alpha virt. eigenvalues --    4.75539   4.75945   4.76924   4.77919   4.79268
 Alpha virt. eigenvalues --    4.80878   4.82171   4.83365   4.83803   4.85458
 Alpha virt. eigenvalues --    4.86184   4.86751   4.88330   4.89504   4.91272
 Alpha virt. eigenvalues --    4.91882   4.93255   4.95667   4.96002   4.96396
 Alpha virt. eigenvalues --    4.99923   5.00877   5.02040   5.03927   5.04871
 Alpha virt. eigenvalues --    5.06485   5.07661   5.09049   5.10117   5.10751
 Alpha virt. eigenvalues --    5.12115   5.12892   5.13766   5.16833   5.18828
 Alpha virt. eigenvalues --    5.19582   5.20423   5.21089   5.23430   5.23831
 Alpha virt. eigenvalues --    5.24706   5.26479   5.27587   5.29435   5.30354
 Alpha virt. eigenvalues --    5.31969   5.32298   5.33758   5.37708   5.39022
 Alpha virt. eigenvalues --    5.42406   5.43300   5.45149   5.46395   5.47643
 Alpha virt. eigenvalues --    5.47784   5.50083   5.51676   5.53005   5.53917
 Alpha virt. eigenvalues --    5.55799   5.58929   5.62317   5.63868   5.64751
 Alpha virt. eigenvalues --    5.68354   5.70045   5.71027   5.73945   5.75360
 Alpha virt. eigenvalues --    5.77826   5.79632   5.82136   5.82947   5.84888
 Alpha virt. eigenvalues --    5.87175   5.89938   5.92167   5.95979   5.97567
 Alpha virt. eigenvalues --    5.98846   6.02029   6.04160   6.11002   6.14041
 Alpha virt. eigenvalues --    6.19333   6.20299   6.26208   6.29171   6.29959
 Alpha virt. eigenvalues --    6.31662   6.37567   6.39191   6.41216   6.42062
 Alpha virt. eigenvalues --    6.44490   6.45358   6.47693   6.48976   6.49727
 Alpha virt. eigenvalues --    6.54948   6.57147   6.61267   6.65227   6.70608
 Alpha virt. eigenvalues --    6.74345   6.76497   6.78833   6.79403   6.82301
 Alpha virt. eigenvalues --    6.83492   6.86066   6.86864   6.88823   6.89466
 Alpha virt. eigenvalues --    6.90048   6.91271   6.92572   6.94875   6.95877
 Alpha virt. eigenvalues --    6.97352   6.97845   6.99341   7.01866   7.02653
 Alpha virt. eigenvalues --    7.03449   7.04294   7.06330   7.06732   7.07076
 Alpha virt. eigenvalues --    7.08399   7.09009   7.09518   7.09905   7.13097
 Alpha virt. eigenvalues --    7.14059   7.16600   7.18126   7.20263   7.20870
 Alpha virt. eigenvalues --    7.23343   7.23663   7.25087   7.25904   7.26733
 Alpha virt. eigenvalues --    7.28387   7.28608   7.30446   7.32163   7.33240
 Alpha virt. eigenvalues --    7.33978   7.34160   7.35447   7.37895   7.38733
 Alpha virt. eigenvalues --    7.40104   7.42475   7.44352   7.44481   7.48810
 Alpha virt. eigenvalues --    7.50543   7.50724   7.52318   7.54692   7.55944
 Alpha virt. eigenvalues --    7.57084   7.57978   7.59935   7.61152   7.62074
 Alpha virt. eigenvalues --    7.64063   7.66116   7.67097   7.68666   7.73075
 Alpha virt. eigenvalues --    7.73855   7.75307   7.77520   7.80270   7.80976
 Alpha virt. eigenvalues --    7.86964   7.87371   7.88919   7.90450   7.94608
 Alpha virt. eigenvalues --    7.95979   7.97506   8.00593   8.03530   8.08877
 Alpha virt. eigenvalues --    8.13424   8.17430   8.20144   8.24462   8.25150
 Alpha virt. eigenvalues --    8.32321   8.36255   8.38952   8.40326   8.42717
 Alpha virt. eigenvalues --    8.46168   8.54113   8.58347   8.64350   8.78110
 Alpha virt. eigenvalues --    8.92829   8.96699   8.97619   9.04472   9.16064
 Alpha virt. eigenvalues --    9.18296  16.38520  16.67532  16.80674  16.98936
 Alpha virt. eigenvalues --   17.79779  18.02450  18.21477  18.47641  19.37904
          Condensed to atoms (all electrons):
              1          2          3          4          5          6
     1  H    0.787986   0.181787  -0.006408  -0.008926  -0.003211  -0.008782
     2  O    0.181787   8.800180   0.046076   0.068812  -0.135549   0.067760
     3  H   -0.006408   0.046076   0.897932   0.090072  -0.069156  -0.001151
     4  H   -0.008926   0.068812   0.090072   0.501029  -0.063777  -0.000076
     5  O   -0.003211  -0.135549  -0.069156  -0.063777   9.388288   0.003039
     6  H   -0.008782   0.067760  -0.001151  -0.000076   0.003039   0.458857
     7  H   -0.003321   0.019327  -0.000142   0.000758  -0.000656   0.054930
     8  O   -0.002951  -0.111591  -0.000110   0.000118  -0.004163   0.007287
     9  H   -0.004729   0.027537  -0.000354   0.002280   0.003929   0.006517
    10  H   -0.004997   0.055812   0.002081  -0.002772  -0.010517  -0.005263
    11  O   -0.004443  -0.103328   0.007103  -0.000852  -0.007363  -0.008442
    12  H   -0.002281   0.034702   0.003800  -0.002824  -0.001024   0.000605
    13  H   -0.004076   0.028740  -0.002086   0.001529   0.015042   0.000070
    14  O   -0.001612  -0.100347   0.002628  -0.005405  -0.017823  -0.012138
    15  H   -0.002152   0.009419   0.038866  -0.006650   0.006598   0.000500
    16  H   -0.000610   0.001686  -0.003181   0.004558   0.010207   0.000124
    17  O    0.004336  -0.008760  -0.121892   0.017791  -0.242825  -0.000707
    18  H   -0.000001  -0.002769   0.000290  -0.000207   0.000540  -0.004501
    19  H   -0.001159   0.007915  -0.001352   0.002642   0.004137   0.005347
    20  O    0.000764   0.010227  -0.000141  -0.000065   0.000432  -0.013079
    21  H   -0.000214   0.000335   0.000059   0.000410  -0.000305  -0.002558
    22  H   -0.001324   0.009586  -0.000176   0.000154   0.001501   0.028116
    23  O    0.000130   0.023059  -0.000227  -0.001285   0.000146   0.019456
    24  H   -0.000407   0.000046  -0.007897  -0.014545   0.014891  -0.000471
    25  H   -0.000952   0.003961   0.015336  -0.002632   0.028655  -0.000660
    26  O    0.001092   0.006846   0.064212   0.016781  -0.296414   0.000819
              7          8          9         10         11         12
     1  H   -0.003321  -0.002951  -0.004729  -0.004997  -0.004443  -0.002281
     2  O    0.019327  -0.111591   0.027537   0.055812  -0.103328   0.034702
     3  H   -0.000142  -0.000110  -0.000354   0.002081   0.007103   0.003800
     4  H    0.000758   0.000118   0.002280  -0.002772  -0.000852  -0.002824
     5  O   -0.000656  -0.004163   0.003929  -0.010517  -0.007363  -0.001024
     6  H    0.054930   0.007287   0.006517  -0.005263  -0.008442   0.000605
     7  H    0.740574   0.091412   0.000115  -0.001183   0.000691  -0.006693
     8  O    0.091412   9.067354  -0.000250  -0.004073  -0.003272  -0.006134
     9  H    0.000115  -0.000250   0.725569   0.080513   0.064146  -0.000009
    10  H   -0.001183  -0.004073   0.080513   0.450010  -0.002855   0.001362
    11  O    0.000691  -0.003272   0.064146  -0.002855   8.823789  -0.001240
    12  H   -0.006693  -0.006134  -0.000009   0.001362  -0.001240   0.501040
    13  H   -0.001422   0.003218  -0.000428   0.000503   0.000865   0.067268
    14  O    0.009538  -0.015039   0.000156   0.002018  -0.003861  -0.069453
    15  H   -0.000496   0.001802   0.041526   0.016046   0.034921  -0.000390
    16  H   -0.000019  -0.000208   0.003174  -0.001013   0.001432   0.000205
    17  O    0.000141   0.001159   0.016977   0.003093  -0.172934  -0.002013
    18  H   -0.047920   0.012366   0.000428  -0.000465   0.000404   0.010938
    19  H   -0.002235   0.017994   0.000288  -0.001344   0.000104   0.025114
    20  O   -0.034522  -0.273540  -0.002189   0.002718   0.000573  -0.014008
    21  H    0.001742  -0.000086   0.023363  -0.001114  -0.016750   0.000117
    22  H    0.066463  -0.115355   0.020688   0.005435   0.027391   0.001275
    23  O    0.023649  -0.252929  -0.064719   0.002113  -0.187917  -0.002391
    24  H   -0.000188  -0.000047  -0.000478   0.001346   0.000242  -0.000504
    25  H    0.000154  -0.000076  -0.000314   0.001227  -0.000131  -0.002766
    26  O    0.000593   0.003405   0.000602  -0.002118   0.001512   0.038522
             13         14         15         16         17         18
     1  H   -0.004076  -0.001612  -0.002152  -0.000610   0.004336  -0.000001
     2  O    0.028740  -0.100347   0.009419   0.001686  -0.008760  -0.002769
     3  H   -0.002086   0.002628   0.038866  -0.003181  -0.121892   0.000290
     4  H    0.001529  -0.005405  -0.006650   0.004558   0.017791  -0.000207
     5  O    0.015042  -0.017823   0.006598   0.010207  -0.242825   0.000540
     6  H    0.000070  -0.012138   0.000500   0.000124  -0.000707  -0.004501
     7  H   -0.001422   0.009538  -0.000496  -0.000019   0.000141  -0.047920
     8  O    0.003218  -0.015039   0.001802  -0.000208   0.001159   0.012366
     9  H   -0.000428   0.000156   0.041526   0.003174   0.016977   0.000428
    10  H    0.000503   0.002018   0.016046  -0.001013   0.003093  -0.000465
    11  O    0.000865  -0.003861   0.034921   0.001432  -0.172934   0.000404
    12  H    0.067268  -0.069453  -0.000390   0.000205  -0.002013   0.010938
    13  H    0.666596   0.069594  -0.000280  -0.000204   0.000376  -0.000876
    14  O    0.069594   8.973971   0.000076   0.000210   0.001622   0.006511
    15  H   -0.000280   0.000076   0.537404  -0.015030   0.192505  -0.000130
    16  H   -0.000204   0.000210  -0.015030   0.707905   0.225060  -0.000035
    17  O    0.000376   0.001622   0.192505   0.225060   8.290740   0.000058
    18  H   -0.000876   0.006511  -0.000130  -0.000035   0.000058   0.858068
    19  H    0.041957   0.026740   0.000036   0.000000  -0.000306  -0.060506
    20  O    0.024632  -0.264165  -0.000022  -0.000022  -0.001768   0.227421
    21  H    0.000072   0.000385   0.000201  -0.000284  -0.000483  -0.000458
    22  H   -0.000346   0.000059  -0.000310   0.000039  -0.000020   0.000029
    23  O   -0.000228  -0.001054   0.004791   0.001538  -0.007303   0.000408
    24  H    0.018331   0.029758  -0.000735   0.000133   0.003810  -0.000055
    25  H    0.013739   0.029157  -0.000299  -0.001670   0.008736  -0.000425
    26  O   -0.101560  -0.179990   0.003021   0.003259  -0.032644   0.004112
             19         20         21         22         23         24
     1  H   -0.001159   0.000764  -0.000214  -0.001324   0.000130  -0.000407
     2  O    0.007915   0.010227   0.000335   0.009586   0.023059   0.000046
     3  H   -0.001352  -0.000141   0.000059  -0.000176  -0.000227  -0.007897
     4  H    0.002642  -0.000065   0.000410   0.000154  -0.001285  -0.014545
     5  O    0.004137   0.000432  -0.000305   0.001501   0.000146   0.014891
     6  H    0.005347  -0.013079  -0.002558   0.028116   0.019456  -0.000471
     7  H   -0.002235  -0.034522   0.001742   0.066463   0.023649  -0.000188
     8  O    0.017994  -0.273540  -0.000086  -0.115355  -0.252929  -0.000047
     9  H    0.000288  -0.002189   0.023363   0.020688  -0.064719  -0.000478
    10  H   -0.001344   0.002718  -0.001114   0.005435   0.002113   0.001346
    11  O    0.000104   0.000573  -0.016750   0.027391  -0.187917   0.000242
    12  H    0.025114  -0.014008   0.000117   0.001275  -0.002391  -0.000504
    13  H    0.041957   0.024632   0.000072  -0.000346  -0.000228   0.018331
    14  O    0.026740  -0.264165   0.000385   0.000059  -0.001054   0.029758
    15  H    0.000036  -0.000022   0.000201  -0.000310   0.004791  -0.000735
    16  H    0.000000  -0.000022  -0.000284   0.000039   0.001538   0.000133
    17  O   -0.000306  -0.001768  -0.000483  -0.000020  -0.007303   0.003810
    18  H   -0.060506   0.227421  -0.000458   0.000029   0.000408  -0.000055
    19  H    0.540419   0.193501  -0.000263   0.000014   0.001589   0.000152
    20  O    0.193501   8.436812   0.000102   0.004745  -0.012964   0.000158
    21  H   -0.000263   0.000102   0.671091   0.043473   0.183272   0.000145
    22  H    0.000014   0.004745   0.043473   0.630565   0.089254  -0.000139
    23  O    0.001589  -0.012964   0.183272   0.089254   8.568487  -0.000106
    24  H    0.000152   0.000158   0.000145  -0.000139  -0.000106   0.713043
    25  H   -0.001177   0.001016   0.000026  -0.000227   0.000096   0.074754
    26  O    0.015583  -0.022436  -0.000256  -0.000038   0.000091   0.032260
             25         26
     1  H   -0.000952   0.001092
     2  O    0.003961   0.006846
     3  H    0.015336   0.064212
     4  H   -0.002632   0.016781
     5  O    0.028655  -0.296414
     6  H   -0.000660   0.000819
     7  H    0.000154   0.000593
     8  O   -0.000076   0.003405
     9  H   -0.000314   0.000602
    10  H    0.001227  -0.002118
    11  O   -0.000131   0.001512
    12  H   -0.002766   0.038522
    13  H    0.013739  -0.101560
    14  O    0.029157  -0.179990
    15  H   -0.000299   0.003021
    16  H   -0.001670   0.003259
    17  O    0.008736  -0.032644
    18  H   -0.000425   0.004112
    19  H   -0.001177   0.015583
    20  O    0.001016  -0.022436
    21  H    0.000026  -0.000256
    22  H   -0.000227  -0.000038
    23  O    0.000096   0.000091
    24  H    0.074754   0.032260
    25  H    0.491585   0.063475
    26  O    0.063475   8.809164
 Mulliken atomic charges:
              1
     1  H    0.086458
     2  O   -0.941468
     3  H    0.045820
     4  H    0.403079
     5  O   -0.624623
     6  H    0.404401
     7  H    0.088710
     8  O   -0.416288
     9  H    0.055663
    10  H    0.413436
    11  O   -0.449786
    12  H    0.426781
    13  H    0.158973
    14  O   -0.481535
    15  H    0.138785
    16  H    0.062745
    17  O   -0.174750
    18  H   -0.003225
    19  H    0.184810
    20  O   -0.264180
    21  H    0.097977
    22  H    0.189148
    23  O   -0.386954
    24  H    0.136504
    25  H    0.279411
    26  O   -0.429895
 Sum of Mulliken charges=  -1.00000
 Atomic charges with hydrogens summed into heavy atoms:
              1
     1  H    0.000000
     2  O   -0.855010
     3  H    0.000000
     4  H    0.000000
     5  O   -0.175723
     6  H    0.000000
     7  H    0.000000
     8  O    0.076823
     9  H    0.000000
    10  H    0.000000
    11  O    0.019314
    12  H    0.000000
    13  H    0.000000
    14  O    0.104219
    15  H    0.000000
    16  H    0.000000
    17  O    0.026781
    18  H    0.000000
    19  H    0.000000
    20  O   -0.082594
    21  H    0.000000
    22  H    0.000000
    23  O   -0.099830
    24  H    0.000000
    25  H    0.000000
    26  O   -0.013980
 Sum of Mulliken charges=  -1.00000
 Electronic spatial extent (au):  <R**2>=  2274.7128
 Charge=    -1.0000 electrons
 Dipole moment (field-independent basis, Debye):
    X=     1.4400    Y=    -0.4724    Z=    -5.4017  Tot=     5.6103
 Quadrupole moment (field-independent basis, Debye-Ang):
   XX=   -96.9838   YY=   -73.6872   ZZ=   -58.1341
   XY=    -4.8049   XZ=     0.9773   YZ=     2.9355
 Traceless Quadrupole moment (field-independent basis, Debye-Ang):
   XX=   -20.7154   YY=     2.5812   ZZ=    18.1342
   XY=    -4.8049   XZ=     0.9773   YZ=     2.9355
 Octapole moment (field-independent basis, Debye-Ang**2):
  XXX=    37.0313  YYY=    -6.2451  ZZZ=    -9.1499  XYY=    -0.3551
  XXY=    -0.8904  XXZ=   -18.7933  XZZ=    -5.9495  YZZ=    -2.3176
  YYZ=   -39.2621  XYZ=     7.9403
 Hexadecapole moment (field-independent basis, Debye-Ang**3):
 XXXX= -1693.7705 YYYY= -1112.6022 ZZZZ=  -214.9263 XXXY=   -33.6948
 XXXZ=    18.1921 YYYX=   -62.1655 YYYZ=     7.9992 ZZZX=    -4.0522
 ZZZY=    10.2768 XXYY=  -485.4472 XXZZ=  -258.2242 YYZZ=  -206.0671
 XXYZ=    25.7558 YYXZ=    -1.0120 ZZXY=    -7.0072
 N-N= 6.423761265571D+02 E-N=-2.927074939105D+03  KE= 6.858883986760D+02
 ***** Axes restored to original set *****
 -------------------------------------------------------------------
 Center     Atomic                   Forces (Hartrees/Bohr)
 Number     Number              X              Y              Z
 -------------------------------------------------------------------
    1          1           0.000027114    0.000357599    0.000449115
    2          8          -0.002646532   -0.001185915   -0.000200947
    3          1           0.014772443   -0.010904062   -0.006288359
    4          1           0.005804713   -0.007270131    0.001676803
    5          8           0.025487371   -0.042849529   -0.092893672
    6          1          -0.004557759   -0.004307670   -0.002775674
    7          1          -0.004288240    0.010408377   -0.013112833
    8          8          -0.015461872    0.076806096   -0.054817778
    9          1          -0.013229756    0.008033105   -0.008263541
   10          1          -0.002242244    0.000839964   -0.003723224
   11          8           0.035770332    0.003601633   -0.027596816
   12          1           0.000822990    0.002949539   -0.002949076
   13          1           0.015109030   -0.003061266    0.005108835
   14          8           0.037938807   -0.065599064   -0.056389005
   15          1          -0.034587443    0.024605421   -0.022591583
   16          1          -0.012142995   -0.016013308   -0.019055515
   17          8           0.064287979    0.077619969    0.119907669
   18          1          -0.007421878    0.003828039    0.011737738
   19          1           0.015611320   -0.003227257   -0.016831522
   20          8          -0.067708250   -0.050182442    0.109585928
   21          1          -0.007637920    0.008333920    0.007591297
   22          1          -0.018064841   -0.016693394   -0.011044036
   23          8          -0.004172216    0.053184448    0.035038596
   24          1          -0.004439733    0.001370483   -0.002537103
   25          1          -0.022350462    0.015418609    0.002313696
   26          8           0.005320043   -0.066063162    0.047661007
 -------------------------------------------------------------------
 Cartesian Forces:  Max     0.119907669 RMS     0.034447420

 GradGradGradGradGradGradGradGradGradGradGradGradGradGradGradGradGradGrad
 Berny optimization.
 Internal  Forces:  Max     0.103660025 RMS     0.026582610
 Search for a local minimum.
 Step number   1 out of a maximum of 156
 All quantities printed in internal units (Hartrees-Bohrs-Radians)
 Second derivative matrix not updated -- first step.
     Eigenvalues ---    0.00379   0.00488   0.00505   0.00520   0.00607
     Eigenvalues ---    0.00670   0.00702   0.00718   0.00931   0.01011
     Eigenvalues ---    0.01093   0.01249   0.01298   0.01436   0.01531
     Eigenvalues ---    0.02822   0.04613   0.04749   0.05221   0.05975
     Eigenvalues ---    0.06057   0.06423   0.07113   0.07790   0.08226
     Eigenvalues ---    0.08604   0.08780   0.09052   0.09430   0.10395
     Eigenvalues ---    0.10653   0.10855   0.11153   0.11473   0.12165
     Eigenvalues ---    0.12903   0.12973   0.13884   0.14542   0.15190
     Eigenvalues ---    0.15316   0.15660   0.15723   0.16043   0.16819
     Eigenvalues ---    0.17111   0.17517   0.17588   0.18780   0.20393
     Eigenvalues ---    0.20830   0.21739   0.22666   0.23320   0.24905
     Eigenvalues ---    0.40647   0.42074   0.42557   0.43226   0.46771
     Eigenvalues ---    0.47160   0.47414   0.48065   0.52483   0.53320
     Eigenvalues ---    0.53501   0.53752   0.54309   0.55171   0.55259
     Eigenvalues ---    0.55360   0.554481000.000001000.000001000.00000
     Eigenvalues --- 1000.000001000.000001000.000001000.000001000.00000
     Eigenvalues --- 1000.000001000.000001000.000001000.000001000.00000
     Eigenvalues --- 1000.000001000.000001000.000001000.000001000.00000
     Eigenvalues --- 1000.000001000.000001000.000001000.000001000.00000
     Eigenvalues --- 1000.000001000.000001000.000001000.000001000.00000
     Eigenvalues --- 1000.000001000.000001000.000001000.000001000.00000
     Eigenvalues --- 1000.000001000.000001000.000001000.000001000.00000
     Eigenvalues --- 1000.000001000.000001000.000001000.000001000.00000
     Eigenvalues --- 1000.000001000.000001000.000001000.000001000.00000
     Eigenvalues --- 1000.000001000.000001000.000001000.000001000.00000
     Eigenvalues --- 1000.000001000.000001000.000001000.000001000.00000
     Eigenvalues --- 1000.00000
 RFO step:  Lambda=-1.99672733D-01.
 Linear search not attempted -- first point.
 Maximum step size (   0.300) exceeded in Quadratic search.
    -- Step size scaled by   0.435
 Iteration  1 RMS(Cart)=  0.05576840 RMS(Int)=  0.00122709
 Iteration  2 RMS(Cart)=  0.00071496 RMS(Int)=  0.00025149
 Iteration  3 RMS(Cart)=  0.00000426 RMS(Int)=  0.00025147
 Iteration  4 RMS(Cart)=  0.00000000 RMS(Int)=  0.00025147
 Variable       Old X    -DE/DX   Delta X   Delta X   Delta X     New X
                                 (Linear)    (Quad)   (Total)
    R1        1.81603  -0.00045   0.00000  -0.00026  -0.00026   1.81577
    R2        3.23054   0.01941   0.00000   0.02511   0.02500   3.25553
    R3        3.23054   0.03198   0.00000   0.04074   0.04060   3.27114
    R4        3.23054   0.02717   0.00000   0.02952   0.02941   3.25994
    R5        3.23054   0.03356   0.00000   0.04109   0.04095   3.27149
    R6        1.81727   0.09334   0.00000   0.05742   0.05752   1.87479
    R7        2.24249   0.10366   0.00000   0.10436   0.10446   2.34695
    R8        1.88528   0.01009   0.00000   0.00445   0.00434   1.88962
    R9        2.90077   0.05082   0.00000   0.07483   0.07483   2.97561
   R10        1.88528   0.02808   0.00000   0.01415   0.01402   1.89930
   R11        1.81727   0.09039   0.00000   0.05572   0.05585   1.87312
   R12        2.30641   0.09350   0.00000   0.10198   0.10222   2.40864
   R13        2.52170   0.02874   0.00000   0.03720   0.03719   2.55890
   R14        1.81727   0.04874   0.00000   0.02944   0.02937   1.84664
   R15        2.77905   0.03455   0.00000   0.04998   0.04990   2.82895
   R16        1.88528   0.02747   0.00000   0.01226   0.01215   1.89743
   R17        2.75406   0.02379   0.00000   0.03385   0.03390   2.78796
   R18        1.88528   0.03734   0.00000   0.01890   0.01876   1.90404
   R19        1.81727   0.02879   0.00000   0.01805   0.01813   1.83540
   R20        2.91568   0.00786   0.00000   0.01569   0.01578   2.93146
   R21        2.40834   0.07857   0.00000   0.08973   0.08990   2.49824
   R22        1.81556   0.06012   0.00000   0.03728   0.03738   1.85294
   R23        1.88570  -0.02704   0.00000  -0.01730  -0.01730   1.86841
   R24        1.81681   0.01318   0.00000   0.00763   0.00763   1.82444
   R25        1.88701   0.06977   0.00000   0.04956   0.04978   1.93679
   R26        1.81436   0.00621   0.00000   0.00359   0.00359   1.81795
   R27        1.88658   0.05050   0.00000   0.03447   0.03446   1.92104
   R28        1.81513  -0.00247   0.00000  -0.00143  -0.00143   1.81371
   R29        1.88721   0.02678   0.00000   0.01921   0.01924   1.90645
    A1        1.92504  -0.00934   0.00000  -0.00967  -0.00966   1.91538
    A2        1.92504  -0.01140   0.00000  -0.01151  -0.01139   1.91364
    A3        1.92504  -0.01035   0.00000  -0.01052  -0.01045   1.91458
    A4        1.92504  -0.01260   0.00000  -0.01319  -0.01309   1.91195
    A5        2.43311   0.02073   0.00000   0.02119   0.02102   2.45413
    A6        1.45018   0.01840   0.00000   0.01431   0.01415   1.46433
    A7        1.45018  -0.00987   0.00000  -0.00656  -0.00653   1.44365
    A8        1.45018  -0.00705   0.00000  -0.00637  -0.00642   1.44376
    A9        1.45018   0.02715   0.00000   0.02804   0.02760   1.47778
   A10        2.43311   0.02295   0.00000   0.02371   0.02351   2.45661
   A11        2.75599  -0.00529   0.00000   0.00269   0.00317   2.75916
   A12        3.01347   0.00869   0.00000   0.00550   0.00504   3.01851
   A13        1.78579  -0.00500   0.00000  -0.00319  -0.00325   1.78254
   A14        2.20732   0.00706   0.00000   0.00696   0.00698   2.21430
   A15        1.90175  -0.00862   0.00000  -0.01401  -0.01395   1.88779
   A16        3.01347   0.01546   0.00000   0.01258   0.01242   3.02589
   A17        2.49269   0.00547   0.00000   0.01481   0.01565   2.50834
   A18        1.78579  -0.01642   0.00000  -0.01670  -0.01659   1.76920
   A19        1.63986   0.01436   0.00000   0.01369   0.01364   1.65350
   A20        2.22442   0.00265   0.00000   0.00204   0.00214   2.22656
   A21        2.66669   0.01073   0.00000   0.01684   0.01705   2.68374
   A22        3.01347   0.01455   0.00000   0.01100   0.01091   3.02438
   A23        1.78579  -0.00060   0.00000   0.00222   0.00219   1.78797
   A24        2.15350   0.00650   0.00000   0.00647   0.00625   2.15975
   A25        1.65239   0.00813   0.00000   0.00651   0.00652   1.65891
   A26        3.01347   0.02537   0.00000   0.02131   0.02088   3.03436
   A27        2.73828  -0.01552   0.00000  -0.00829  -0.00761   2.73068
   A28        1.78579   0.00897   0.00000   0.01431   0.01420   1.79999
   A29        1.78740  -0.00856   0.00000  -0.01862  -0.01841   1.76898
   A30        1.99833  -0.00104   0.00000   0.00153   0.00191   2.00024
   A31        2.54414   0.01400   0.00000   0.01581   0.01601   2.56015
   A32        2.19591  -0.04049   0.00000  -0.03955  -0.03928   2.15663
   A33        2.22002   0.01311   0.00000   0.01269   0.01260   2.23262
   A34        1.78655   0.02642   0.00000   0.02738   0.02730   1.81385
   A35        2.19508   0.01760   0.00000   0.02755   0.02861   2.22368
   A36        1.62367   0.01895   0.00000   0.02166   0.02221   1.64588
   A37        2.74306  -0.05996   0.00000  -0.06407  -0.06384   2.67922
   A38        1.78551   0.02653   0.00000   0.03077   0.03131   1.81682
   A39        2.83054  -0.00101   0.00000   0.00440   0.00452   2.83506
   A40        1.42553   0.01934   0.00000   0.02488   0.02497   1.45050
   A41        1.83335  -0.01637   0.00000  -0.02029  -0.02040   1.81295
   A42        1.78593   0.01071   0.00000   0.01387   0.01402   1.79995
   A43        1.97957   0.05533   0.00000   0.06476   0.06517   2.04474
   A44        2.23786   0.00341   0.00000  -0.00101  -0.00131   2.23655
   A45        2.15518  -0.02955   0.00000  -0.03028  -0.03082   2.12436
   A46        1.78665   0.01183   0.00000   0.00903   0.00863   1.79528
    D1        2.65668   0.00149   0.00000  -0.00055  -0.00067   2.65601
    D2       -0.48491   0.00511   0.00000   0.00903   0.00903  -0.47588
    D3        0.75199   0.00609   0.00000   0.00566   0.00561   0.75760
    D4       -1.72182  -0.01540   0.00000  -0.01691  -0.01675  -1.73857
    D5        2.65668   0.00420   0.00000   0.00520   0.00505   2.66172
    D6       -0.48491   0.00057   0.00000  -0.00438  -0.00465  -0.48956
    D7       -1.72182  -0.00930   0.00000  -0.00823  -0.00818  -1.73000
    D8        0.75199   0.00814   0.00000   0.00947   0.00952   0.76151
    D9        2.65668  -0.00558   0.00000  -0.00449  -0.00434   2.65234
   D10       -1.72182  -0.00911   0.00000  -0.00980  -0.00978  -1.73160
   D11        0.75199   0.00903   0.00000   0.01001   0.00990   0.76189
   D12       -0.48491  -0.01390   0.00000  -0.01483  -0.01473  -0.49964
   D13        2.65668  -0.00735   0.00000  -0.00721  -0.00696   2.64972
   D14        0.75199   0.00606   0.00000   0.00540   0.00543   0.75742
   D15       -1.72182  -0.01001   0.00000  -0.00969  -0.00967  -1.73149
   D16       -0.48491   0.00097   0.00000   0.00313   0.00342  -0.48149
   D17        0.39399  -0.00146   0.00000  -0.00293  -0.00295   0.39104
   D18       -1.78941   0.01094   0.00000   0.01558   0.01555  -1.77386
   D19       -0.97844   0.01002   0.00000   0.01597   0.01595  -0.96250
   D20        2.65986   0.00637   0.00000   0.00774   0.00774   2.66760
   D21       -0.57484  -0.00110   0.00000   0.00015   0.00005  -0.57478
   D22        1.79738  -0.00163   0.00000  -0.00281  -0.00273   1.79465
   D23        1.28896  -0.00313   0.00000  -0.00409  -0.00373   1.28522
   D24       -0.84573   0.00770   0.00000   0.00997   0.01035  -0.83538
   D25       -0.57484   0.00061   0.00000   0.00006  -0.00012  -0.57496
   D26        1.68914   0.00387   0.00000   0.00236   0.00219   1.69132
   D27        0.20563   0.00858   0.00000   0.01136   0.01106   0.21669
   D28       -1.62429   0.00229   0.00000   0.00647   0.00613  -1.61816
   D29        2.78620  -0.00011   0.00000  -0.00095  -0.00091   2.78529
   D30       -1.18454   0.01780   0.00000   0.03107   0.03067  -1.15387
   D31        0.95938   0.01047   0.00000   0.01121   0.01106   0.97044
   D32        2.85839   0.00192   0.00000   0.00153   0.00153   2.85992
   D33       -0.95284  -0.00407   0.00000  -0.00421  -0.00412  -0.95696
   D34       -2.76995  -0.01642   0.00000  -0.01658  -0.01647  -2.78642
   D35        3.06188   0.00027   0.00000  -0.00042  -0.00055   3.06133
   D36        1.30594  -0.01724   0.00000  -0.02296  -0.02271   1.28323
   D37       -0.57484  -0.01373   0.00000  -0.01313  -0.01297  -0.58781
   D38        1.61836  -0.00436   0.00000  -0.00359  -0.00361   1.61475
   D39        1.31042   0.00821   0.00000   0.00967   0.00973   1.32015
   D40       -0.57584   0.00114   0.00000   0.00029   0.00035  -0.57549
   D41       -0.57484  -0.00304   0.00000  -0.00284  -0.00270  -0.57754
   D42        1.49958  -0.00401   0.00000  -0.00277  -0.00233   1.49725
   D43        0.27277   0.00702   0.00000   0.00774   0.00780   0.28056
   D44       -1.64625   0.01238   0.00000   0.02083   0.02056  -1.62569
   D45        1.33998  -0.00646   0.00000  -0.01178  -0.01155   1.32843
   D46       -1.24254   0.02685   0.00000   0.04233   0.04204  -1.20050
[...]
 74949,0.00016318,0.00101526,0.00109731,-0.00012312,0.00406177,-0.00203
 973,-0.00112721,0.00373631,0.00561642,-0.00224106,-0.00493428,-0.00252
 907,0.00210766,0.00066408,-0.00018949,-0.00029276,-0.00031058,-0.00193
 503,-0.00079306,-0.00017218,0.00157535,0.00066669,-0.00216325,-0.00993
 668,0.00529889,-0.00365091,0.00210402,-0.00488788,0.00972888,-0.001473
 58,-0.00881157,0.00005995,-0.00023792,-0.00005124,-0.00005713,-0.00009
 783,-0.00005211,0.00012708,0.00061946,0.00025535,-0.02529481,0.0101326
 7,0.01072615,0.30707066,-0.00001474,0.00009936,-0.00004739,0.00098188,
 -0.00261588,0.00009340,0.00001908,0.00015000,0.00008090,-0.00021595,0.
 00037459,-0.00018445,0.00003200,-0.00052734,0.00018262,-0.00215440,-0.
 00027470,0.00135736,0.00286781,-0.00511220,0.00045481,0.00043167,0.002
 30465,-0.00082552,-0.00027597,-0.00003284,0.00011156,-0.00005774,0.000
 32422,0.00022706,0.00027394,-0.00026790,-0.00017826,-0.00467388,0.0058
 4264,0.00110857,0.00119093,-0.00106107,0.00016175,-0.00148279,-0.01272
 630,0.00299891,-0.00023093,0.00007549,-0.00006219,-0.00001068,0.000025
 06,0.00000350,0.00014126,-0.00017504,-0.00000513,-0.02165317,0.0054813
 7,0.00461973,-0.08452861,0.07714906,0.00007494,0.00013192,-0.00007369,
 -0.00059798,-0.00263913,0.00020785,0.00008285,0.00020294,0.00014687,0.
 00059088,0.00019379,0.00017922,-0.00052397,-0.00024472,-0.00028571,-0.
 00086522,0.00118946,0.00054118,-0.00165274,-0.00021300,0.00191887,0.00
 146093,-0.00014939,-0.00155329,-0.00021552,0.00006196,0.00015191,0.000
 21211,0.00092615,0.00044127,-0.00006031,-0.00068962,-0.00041680,0.0024
 7758,0.00272516,-0.00235434,-0.00261439,-0.00084542,0.00632720,-0.0054
 7628,0.00343929,-0.01191777,0.00007013,0.00005515,0.00009297,0.0000285
 0,0.00004018,0.00002286,-0.00009558,-0.00020034,-0.00015985,-0.0297697
 0,0.00728095,0.00728554,-0.08303843,0.04715602,0.08423317,-0.00009748,
 0.00011936,-0.00004276,-0.00043768,-0.00411697,0.00081205,0.00023935,0
 .00040550,0.00018030,0.00071276,0.00039057,0.00001555,-0.00087804,-0.0
 0065555,0.00001213,-0.00124465,0.00147410,0.00006658,-0.00700255,0.001
 01464,-0.00081198,0.00390960,-0.00390583,0.00122889,-0.00032420,0.0002
 0339,0.00016366,0.00033954,0.00139600,0.00052403,-0.00009902,-0.001158
 24,-0.00043722,0.00029132,0.00635549,-0.00238633,0.00072828,-0.0010449
 4,0.00509569,-0.02742139,0.00588333,0.01172964,0.00013311,0.00014873,0
 .00009340,0.00005983,0.00007158,0.00004496,-0.00023046,-0.00042295,-0.
 00022205,-0.25909957,-0.15128171,-0.21525602,-0.29013970,0.10983422,0.
 12085269,0.58152912,0.00007711,-0.00012322,0.00000238,-0.00258109,0.00
 340573,0.00003769,-0.00000283,-0.00018741,-0.00006439,0.00071434,-0.00
 055027,0.00049924,-0.00034118,0.00079598,-0.00049380,0.00470011,-0.002
 40630,-0.00165744,0.00346126,0.00600377,-0.00162114,-0.00741406,-0.010
 09698,0.00525074,0.00064048,0.00008114,-0.00016377,0.00031828,-0.00033
 994,-0.00021014,-0.00078633,0.00030314,0.00012710,0.00132640,-0.004761
 68,0.00090180,-0.00032274,0.00041572,-0.00129851,0.00904688,0.00622900
 ,-0.00366682,0.00058796,-0.00015694,0.00022088,0.00004703,-0.00002709,
 0.00000635,-0.00039948,0.00025732,-0.00011091,-0.12122820,-0.10641583,
 -0.14059892,0.07716720,-0.06889774,-0.05869237,0.03450926,0.17582406,-
 0.00015784,-0.00009192,0.00008187,0.00160030,0.00097631,-0.00006946,-0
 .00007872,-0.00012207,-0.00011409,-0.00080548,0.00006577,-0.00037907,0
 .00060573,-0.00007294,0.00044614,-0.00137978,0.00000968,0.00019508,-0.
 00138570,-0.00356826,-0.00540982,0.00245932,0.00556534,0.00201520,-0.0
 0003349,-0.00010804,-0.00012325,-0.00034476,-0.00072438,-0.00033430,0.
 00036629,0.00052946,0.00038136,-0.00052900,-0.00127344,0.00038037,0.00
 106134,0.00062277,-0.00363798,0.01210264,-0.00340401,0.00411012,-0.000
 29546,0.00000989,-0.00018474,-0.00004386,-0.00002941,-0.00002607,0.000
 24182,0.00009281,0.00020616,-0.17504369,-0.14150595,-0.19754376,0.0818
 2046,-0.05650616,-0.08372710,0.07926711,0.20007771,0.28370806,0.000028
 01,-0.00001558,-0.00002102,-0.00052360,-0.00028616,-0.00013174,-0.0000
 3038,0.00017756,0.00011105,0.00011927,0.00003947,0.00013477,-0.0000730
 7,-0.00020244,-0.00014750,0.00066345,-0.00018884,0.00002984,0.00016770
 ,-0.00040218,-0.00043641,-0.00071292,-0.00045745,0.00068391,0.00205898
 ,-0.00128277,0.00304955,0.00027634,0.00054344,0.00039217,-0.00155770,0
 .00040271,-0.00125823,0.00010753,0.00017903,-0.00006133,0.00006760,0.0
 0001966,0.00004925,-0.00025944,-0.00009474,0.00007155,-0.00032324,0.00
 012839,0.00034020,-0.00003226,0.00000677,-0.00001075,0.00025934,-0.000
 18090,-0.00022719,0.00001972,-0.00001720,-0.00000687,0.00031524,-0.000
 05324,-0.00009469,-0.00024367,0.00016057,0.00012912,0.03268486,-0.0000
 0906,0.00002070,0.00002807,-0.00015032,-0.00005241,0.00016673,0.000098
 95,0.00008335,-0.00000418,0.00013592,-0.00003368,-0.00002248,-0.000187
 56,-0.00001712,0.00004390,0.00009297,-0.00007419,-0.00030222,-0.000238
 87,-0.00057632,-0.00072082,-0.00036301,-0.00227636,0.00095427,0.000048
 34,0.00039252,0.00022387,0.00008554,0.00022160,-0.00021687,0.00000804,
 -0.00046406,-0.00002695,0.00002821,-0.00004553,-0.00009127,0.00005504,
 -0.00007125,-0.00001400,-0.00006383,0.00013710,0.00013177,0.00017445,0
 .00012324,0.00008323,0.00000269,0.00002890,0.00003121,-0.00012922,-0.0
 0017656,-0.00009951,-0.00003039,0.00003072,0.00002342,0.00000496,-0.00
 008907,-0.00007266,0.00011685,0.00009315,0.00011027,-0.02261515,0.0830
 8681,-0.00001043,0.00002035,0.00001647,-0.00013368,0.00038851,0.000173
 03,0.00006481,-0.00002936,0.00001055,0.00019978,-0.00010625,0.00005091
 ,-0.00016643,0.00013133,-0.00007307,0.00014495,-0.00019859,-0.00035614
 ,-0.00021662,-0.00053968,-0.00031119,0.00022375,-0.00018018,0.00170424
 ,0.00045672,0.00069204,-0.00236320,-0.00003806,-0.00033578,-0.00034345
 ,-0.00052156,-0.00002870,0.00117968,-0.00003187,-0.00024431,0.00005821
 ,0.00004888,-0.00004982,0.00003965,0.00001773,0.00022015,-0.00006759,0
 .00054364,-0.00007511,0.00016196,0.00003417,0.00001392,0.00001707,-0.0
 0032501,0.00003448,-0.00016247,-0.00002769,-0.00001847,0.00002268,-0.0
 0004977,-0.00007330,0.00003374,0.00010524,0.00016458,-0.00010914,0.108
 92903,-0.14112814,0.46294786,0.00013214,-0.00001442,-0.00005728,-0.002
 86911,-0.00097867,-0.00011408,-0.00003551,0.00030761,0.00008589,0.0003
 7398,0.00006626,0.00031465,-0.00029841,-0.00029122,-0.00023045,0.00616
 799,0.00430631,0.00161926,-0.00118140,-0.00141429,0.00002193,-0.012486
 54,0.00261061,0.00300671,-0.00539368,-0.00262693,0.00085965,-0.0001982
 1,0.00230809,0.00149589,0.00253015,-0.00063824,-0.00116427,0.00040971,
 0.00021877,-0.00015526,0.00016348,-0.00000603,0.00014934,-0.00062943,-
 0.00003260,0.00009519,-0.00123274,0.00028237,-0.00053327,-0.00007429,0
 .00001998,-0.00000158,0.00082239,-0.00037462,0.00027606,-0.00003361,-0
 .00016811,0.00003836,0.00064835,-0.00034875,-0.00004926,-0.00023684,0.
 00102421,-0.00038893,-0.00276240,-0.00743309,-0.00348413,0.08191139,0.
 00014971,0.00015632,-0.00002118,-0.00592543,-0.00031647,0.00063810,0.0
 0017703,0.00061376,0.00021181,0.00167151,-0.00025589,0.00087426,-0.001
 34602,-0.00017991,-0.00072395,0.00877326,-0.00214275,-0.00424310,-0.00
 220005,-0.00344018,0.00369375,0.00111844,0.00819381,0.00793115,-0.0044
 7668,0.00201454,0.00297092,0.00172616,0.00358501,0.00105456,0.00196279
 ,-0.00366676,-0.00254923,0.00064373,-0.00067639,-0.00006990,0.00049256
 ,-0.00020788,0.00039075,-0.00100735,0.00088903,-0.00007607,-0.00075500
 ,0.00045444,-0.00010737,-0.00003957,0.00010015,0.00004529,0.00048330,-
 0.00074108,-0.00012116,-0.00030538,-0.00034446,0.00019606,0.00082191,-
 0.00106230,0.00011126,0.00045612,0.00281678,-0.00155870,0.00796589,0.0
 1251606,0.01451956,0.10116419,0.24666858,0.00015810,-0.00005819,-0.000
 06733,-0.00361556,0.00043994,0.00008570,0.00007456,0.00032600,0.000166
 18,0.00113452,-0.00021673,0.00067008,-0.00083911,-0.00001331,-0.000606
 00,0.00427709,-0.00246196,-0.00270628,-0.00156347,0.00184002,0.0066427
 6,0.00356249,0.00826377,-0.01026767,-0.00106875,0.00217620,0.00387474,
 0.00153689,0.00153742,0.00081034,0.00039516,-0.00216241,-0.00280598,0.
 00028716,-0.00063356,0.00018542,0.00027961,-0.00008398,0.00028923,-0.0
 0048069,0.00061310,-0.00032136,-0.00009416,0.00017801,0.00022778,-0.00
 000932,0.00006984,0.00003285,0.00005826,-0.00036712,-0.00025786,-0.000
 18106,-0.00028262,0.00011263,0.00043307,-0.00062395,0.00021587,0.00037
 667,0.00200011,-0.00143438,-0.01669531,-0.03311136,-0.02272262,0.06751
 956,0.11637236,0.14560188,-0.00016928,-0.00002928,0.00002592,0.0037491
 7,0.00260149,0.00030003,0.00007490,-0.00073542,-0.00013069,-0.00041547
 ,-0.00032879,-0.00033821,0.00036156,0.00084828,0.00018807,-0.00531578,
 -0.00084887,0.00031238,0.00044152,0.00085912,-0.00095379,0.00530061,-0
 .00995891,-0.00638745,0.00353398,0.00041726,-0.00835372,-0.00243918,-0
 .00497655,-0.00196560,-0.00882670,0.00522780,0.00915895,-0.00062999,-0
 .00077567,0.00047717,-0.00021362,-0.00001825,-0.00014425,0.00099504,0.
 00038177,-0.00040404,0.00314968,-0.00081321,0.00134607,0.00023903,-0.0
 0001801,0.00002857,-0.00213788,0.00093324,-0.00076817,-0.00000753,0.00
 017888,-0.00002314,-0.00102628,0.00040659,0.00022095,0.00055061,-0.001
 12121,0.00020527,-0.03022934,0.03035825,-0.10573585,-0.06565380,-0.111
 33644,-0.05538454,0.09862597,-0.00008768,-0.00010211,0.00000499,0.0035
 9209,-0.00032040,-0.00055909,-0.00023070,-0.00035692,-0.00013026,-0.00
 123455,0.00029345,-0.00055268,0.00105228,-0.00003920,0.00046336,-0.005
 58445,0.00047910,0.00193448,0.00123000,0.00159269,-0.00354247,-0.00603
 685,-0.02022463,-0.01505880,0.00010460,-0.00607662,-0.00067928,-0.0013
 5454,-0.00129985,0.00021454,0.00229528,0.00415321,-0.00042404,-0.00032
 328,0.00067021,-0.00002454,-0.00034805,0.00019981,-0.00024728,0.000578
 12,-0.00079928,0.00006967,-0.00047038,-0.00026478,-0.00043061,-0.00002
 263,-0.00011758,-0.00007495,0.00032977,0.00050921,0.00043309,0.0002235
 8,0.00022653,-0.00014223,-0.00045755,0.00070199,-0.00006671,-0.0003979
 8,-0.00187848,0.00101169,0.01609495,-0.09285506,0.12685473,-0.09809338
 ,-0.26509463,-0.09384997,0.08899991,0.38063574,-0.00008289,0.00008360,
 0.00006430,0.00160389,-0.00163733,-0.00014375,-0.00011394,-0.00000415,
 -0.00016560,-0.00089338,0.00037878,-0.00051155,0.00063507,-0.00035009,
 0.00056286,-0.00235903,0.00061235,0.00094413,0.00086046,-0.00049425,-0
 .00400567,-0.00537047,-0.01652805,-0.00178613,-0.00538840,-0.00050791,
 -0.00329781,-0.00010596,0.00115400,0.00035206,0.00796762,-0.00179754,-
 0.00040412,0.00001780,0.00089540,-0.00039619,-0.00019288,0.00008786,-0
 .00022446,0.00006901,-0.00072136,0.00047004,-0.00169489,0.00016874,-0.
 00146310,-0.00011221,-0.00006903,-0.00005764,0.00117140,-0.00004118,0.
 00100960,0.00014370,0.00018854,-0.00009680,-0.00003862,0.00035275,-0.0
 0024277,-0.00039837,-0.00117865,0.00101123,-0.09477722,0.17401721,-0.4
 3993094,-0.06919819,-0.13939772,-0.11765527,0.16811519,-0.01526417,0.5
 6599143,0.00002704,-0.00001286,0.00002243,-0.00053553,-0.00026417,0.00
 012953,0.00014041,-0.00038090,0.00048962,0.00067041,-0.00019642,0.0000
 2602,-0.00067365,-0.00052659,-0.00073594,0.00013206,0.00002436,-0.0001
 3495,-0.00002426,0.00016657,-0.00012691,-0.00008514,-0.00018489,0.0001
 6340,0.00007166,0.00001336,-0.00004944,0.00010543,0.00017588,0.0000493
 0,-0.00025794,-0.00009261,-0.00007211,0.00028990,0.00050179,-0.0004160
 4,0.00217008,-0.00150750,-0.00277336,-0.00160929,0.00049824,0.00112678
 ,0.00031146,-0.00004859,0.00010989,0.00001838,-0.00001662,0.00000775,-
 0.00023483,0.00015576,-0.00014806,-0.00003129,0.00000810,0.00000890,-0
 .00029363,0.00009548,-0.00036537,0.00024188,-0.00015945,0.00025511,0.0
 0002823,0.00006797,0.00001479,0.00003944,0.00015187,0.00003994,-0.0000
 9056,-0.00013841,-0.00001071,0.04180522,-0.00000718,0.00001669,-0.0000
 2853,-0.00013450,-0.00010092,-0.00014832,-0.00024204,-0.00046439,0.000
 72443,0.00007032,-0.00003426,0.00027901,-0.00035186,-0.00231275,-0.000
 62021,0.00011779,-0.00002168,0.00003285,0.00009323,0.00008653,0.000000
 93,-0.00017142,-0.00003343,-0.00005344,0.00005034,-0.00006519,0.000024
 72,0.00002784,-0.00001529,0.00009946,-0.00006076,0.00010537,-0.0001495
 6,0.00008410,0.00026961,0.00016755,0.00002769,0.00029425,-0.00046572,0
 .00004456,-0.00045051,0.00017450,0.00000666,-0.00007648,0.00008309,-0.
 00002703,0.00003030,-0.00002504,0.00011167,0.00006813,-0.00012252,0.00
 000061,0.00002484,-0.00003179,0.00012750,0.00012455,-0.00007624,-0.000
 10216,-0.00017251,0.00009746,0.00006758,-0.00005943,-0.00002276,0.0000
 5983,0.00000280,0.00003459,-0.00011516,0.00005773,-0.00000589,-0.03910
 311,0.11077125,0.00001161,-0.00002079,0.00002224,0.00011831,-0.0003783
 7,0.00022917,0.00025488,0.00053913,-0.00039209,-0.00011052,0.00016495,
 -0.00040450,-0.00028723,0.00050985,0.00170638,-0.00020883,0.00011408,0
 .00002710,-0.00007501,0.00002908,0.00000144,0.00018221,-0.00014255,-0.
 00004607,-0.00005265,0.00005974,0.00003016,0.00003242,0.00025921,0.000
 03240,-0.00002030,-0.00024020,-0.00004017,0.00005490,0.00030596,-0.000
 40431,-0.00029591,-0.00098778,-0.00239318,0.00042029,0.00019001,0.0012
 2927,0.00006023,0.00008139,0.00002646,0.00003016,0.00001716,0.00002453
 ,-0.00012097,-0.00017498,-0.00009437,-0.00003611,-0.00001462,0.0000202
 0,-0.00057684,0.00008088,0.00013110,0.00035169,-0.00003877,-0.00014891
 ,-0.00002119,0.00003421,0.00004617,-0.00000428,0.00012607,0.00007000,0
 .00005076,-0.00012305,-0.00009288,-0.12231598,0.17065796,0.42613692,0.
 00013664,-0.00001076,0.00006594,-0.00301110,-0.00095512,0.00008688,-0.
 00124298,-0.00137304,-0.00020037,0.00638593,0.00407497,-0.00165557,-0.
 01222087,0.00266836,-0.00332014,0.00043024,0.00002995,-0.00032956,-0.0
 0002986,0.00030990,-0.00011905,-0.00033987,-0.00026935,0.00026514,0.00
 017998,-0.00002271,-0.00015250,0.00041618,0.00020789,0.00014661,-0.000
 64619,-0.00001701,-0.00010651,-0.00008014,0.00223177,-0.00172791,-0.00
 540853,-0.00262684,-0.00098877,0.00250066,-0.00060886,0.00142234,0.000
 66657,-0.00036806,0.00009660,-0.00003950,-0.00018154,-0.00002865,-0.00
 023672,0.00113887,0.00034186,-0.00007409,0.00002257,-0.00000418,-0.001
 25238,0.00032861,0.00045450,0.00083176,-0.00040702,-0.00020448,0.00004
 076,0.00006082,-0.00000185,0.00008889,0.00020623,0.00006484,-0.0002134
 3,-0.00014440,0.00003250,-0.00357126,-0.00831491,0.00500128,0.08716987
 ,0.00013631,0.00016154,0.00000678,-0.00556599,-0.00041665,-0.00078914,
 -0.00195333,-0.00385182,-0.00288592,0.00821118,-0.00155741,0.00443227,
 0.00113960,0.00667171,-0.00931863,0.00159764,-0.00030175,-0.00073609,0
 .00017600,0.00056265,-0.00023822,-0.00129239,-0.00012143,0.00063687,0.
 00047970,-0.00022966,-0.00032923,0.00061284,-0.00060705,0.00016019,-0.
 00096460,0.00083145,-0.00005869,0.00162647,0.00335100,-0.00121514,-0.0
 0428134,0.00157223,-0.00293171,0.00183767,-0.00325450,0.00265777,0.000
 78944,-0.00100933,0.00002260,-0.00028246,-0.00033439,-0.00016743,0.000
 37451,0.00275869,0.00121920,-0.00003677,0.00008977,-0.00005104,-0.0007
 4791,0.00044380,0.00006236,0.00047261,-0.00069350,0.00017376,0.0001510
 9,-0.00001010,-0.00011256,0.00020147,0.00003861,-0.00004886,-0.0005580
 0,0.00009828,0.00027878,0.01002265,0.01388240,-0.01737806,0.09891197,0
 .22605895,-0.00016357,0.00003760,-0.00007653,0.00399647,-0.00042576,0.
 00032135,0.00146726,-0.00094949,0.00711489,-0.00466751,0.00250963,-0.0
 0350976,-0.00377753,-0.00964863,-0.00901995,-0.00128674,0.00029975,0.0
 0066442,-0.00009636,-0.00034787,0.00020697,0.00096375,-0.00003771,-0.0
 0062325,-0.00032577,0.00012728,0.00029484,-0.00033179,0.00070880,0.000
 11298,0.00055385,-0.00071183,-0.00025011,-0.00171679,-0.00167922,0.000
 92811,0.00108954,-0.00207273,0.00432170,-0.00035736,0.00218028,-0.0031
 8691,-0.00048983,0.00071614,0.00014887,0.00020124,0.00031595,0.0001078
 0,-0.00037170,-0.00233439,-0.00137720,0.00000857,-0.00007404,0.0000431
 4,0.00010352,-0.00018459,0.00025880,-0.00005919,0.00038963,-0.00031409
 ,-0.00005356,-0.00002552,0.00008035,-0.00008356,0.00006386,0.00012640,
 0.00031642,-0.00009915,-0.00027421,0.01662025,0.02962979,-0.02330080,-
 0.07882909,-0.12008390,0.16100771,-0.00017205,-0.00002981,-0.00003174,
 0.00382011,0.00251618,-0.00037456,0.00044253,0.00093931,0.00104849,-0.
 00538456,-0.00085992,-0.00046238,0.00482222,-0.00998681,0.00753679,-0.
 00046203,-0.00028473,0.00036658,0.00006604,-0.00071806,0.00019854,0.00
 039302,0.00081390,-0.00026366,-0.00022651,-0.00000199,0.00014501,-0.00
 061490,-0.00078085,-0.00042101,0.00098612,0.00038728,0.00039279,-0.002
 51798,-0.00475840,0.00227484,0.00302641,0.00112214,0.00852958,-0.00818
 739,0.00434913,-0.00985996,-0.00102341,0.00040086,-0.00028428,-0.00000
 278,0.00018683,0.00001095,0.00054287,-0.00118587,-0.00012530,0.0002335
 8,-0.00002242,-0.00001664,0.00312286,-0.00090261,-0.00110660,-0.002111
 91,0.00098248,0.00057668,-0.00008903,-0.00011851,-0.00004053,-0.000201
 96,-0.00057278,-0.00026595,0.00034677,0.00042427,0.00012049,-0.0386442
 2,0.04774043,0.11755707,-0.07048054,-0.11105835,0.06728951,0.11231674,
 -0.00008118,-0.00010852,0.00000687,0.00342184,-0.00011991,0.00067541,0
 .00104036,0.00191168,0.00308930,-0.00528626,0.00025824,-0.00206104,-0.
 00612717,-0.01740401,0.01619341,-0.00117187,0.00029933,0.00044295,-0.0
 0022366,-0.00034450,0.00013724,0.00100851,-0.00004167,-0.00037615,-0.0
 0033855,0.00020983,0.00019816,-0.00032319,0.00058398,-0.00007240,0.000
 57260,-0.00073121,0.00005563,-0.00134001,-0.00141749,-0.00010790,0.000
 55410,-0.00594964,0.00094159,0.00157650,0.00432259,0.00005919,-0.00045
 840,0.00067099,-0.00002927,0.00020570,0.00022083,0.00012208,-0.0003304
 2,-0.00185056,-0.00078183,-0.00001468,-0.00010475,0.00007802,-0.000326
 27,-0.00025440,0.00031301,0.00023457,0.00048209,-0.00037765,-0.0001404
 3,0.00006700,0.00010337,-0.00014934,0.00007879,0.00006267,0.00042119,-
 0.00018842,-0.00022068,0.03075007,-0.12192761,-0.15367053,-0.09489230,
 -0.24413350,0.10169610,0.07141831,0.38547085,0.00008164,-0.00006996,0.
 00007284,-0.00175808,0.00173089,-0.00041189,-0.00080101,-0.00000207,-0
 .00432242,0.00259212,-0.00058274,0.00124030,0.00620597,0.01755333,-0.0
 0414788,0.00100152,-0.00045902,-0.00047387,0.00014194,-0.00000657,-0.0
 0016740,-0.00073152,0.00043251,0.00053489,0.00022282,-0.00012531,-0.00
 022220,-0.00000038,-0.00101030,-0.00033069,-0.00009834,0.00083999,0.00
 041642,0.00011155,-0.00118148,0.00054904,0.00559936,0.00078872,-0.0028
 9692,-0.00841688,0.00153735,-0.00122317,0.00005085,-0.00041694,-0.0002
 1973,-0.00015936,-0.00021019,-0.00009560,0.00041530,0.00139113,0.00099
 297,0.00012349,0.00007281,-0.00006673,0.00189643,-0.00029890,-0.001457
 10,-0.00130636,0.00011742,0.00102058,0.00002258,-0.00001218,-0.0001027
 4,-0.00001794,-0.00033139,-0.00026710,-0.00015627,0.00028272,0.0003432
 4,0.10808516,-0.20025632,-0.40241624,0.07969012,0.14669406,-0.13380552
 ,-0.19279472,0.03352245,0.54745691\\0.00000238,-0.00000910,0.00000038,
 -0.00001347,-0.00000981,0.00001800,0.00003280,0.00003359,0.00000215,-0
 .00002861,-0.00008790,-0.00001341,0.00002095,0.00005973,0.00001379,0.0
 0002791,0.00011588,-0.00002612,-0.00005401,0.00006285,0.00005480,0.000
 01988,-0.00015321,-0.00004232,-0.00001133,0.00003061,-0.00001300,0.000
 16619,0.00001115,-0.00001740,-0.00006142,-0.00000964,0.00000351,-0.000
 13265,0.00000156,-0.00005114,0.00003201,-0.00003125,-0.00003598,0.0001
 2413,0.00002234,0.00003261,-0.00006472,-0.00004301,0.00005816,0.000004
 06,-0.00002506,0.00000476,0.00002256,0.00003244,-0.00004935,-0.0000075
 1,0.00002245,0.00001559,-0.00008347,0.00004853,0.00004347,0.00003535,-
 0.00007718,-0.00003977,-0.00000751,0.00000477,0.00000165,-0.00001037,-
 0.00001206,0.00002638,0.00001417,0.00000438,0.00000370,0.00000421,0.00
 000942,0.00000092,-0.00003577,0.00001051,-0.00000437,0.00000423,-0.000
 01198,0.00001299\\\@


 IN THE FIGHT BETWEEN YOU AND THE WORLD, BACK THE WORLD

                                        -- FRANZ KAFKA
 Job cpu time:  3 days 15 hours 53 minutes 47.8 seconds.
 File lengths (MBytes):  RWF=    820 Int=      0 D2E=      0 Chk=     50 Scr=      1
 Normal termination of Gaussian 03 at Sun Jul 18 00:33:32 2010.
